TITLE="3D TRIANGULAR SURFACE DATA"
VARIABLES="X","Y","Z","U","V","W"
ZONE T="unstruc" N=1757 E=3355 F=FEPOINT ET=TRIANGLE
20.48394012451172 20.319377899169922 20.095565795898438 0.3075036108493805 1.2746351957321167 0.033299848437309265
20.50606918334961 20.315824508666992 20.096986770629883 0.3286292552947998 1.3011935949325562 0.03428811579942703
20.500436782836914 20.312149047851562 20.07476234436035 0.3279586732387543 1.2928335666656494 0.026447806507349014
20.482006072998047 20.3271427154541 20.12558937072754 0.2966236174106598 1.2751857042312622 0.043219875544309616
20.502159118652344 20.32065200805664 20.11804962158203 0.31858113408088684 1.2990047931671143 0.04154132306575775
20.52023696899414 20.31151008605957 20.109237670898438 0.339889258146286 1.3198401927947998 0.03929609805345535
20.5191593170166 20.30681610107422 20.085163116455078 0.3450649678707123 1.316170573234558 0.0302437711507082
20.497337341308594 20.308692932128906 20.04854965209961 0.33001279830932617 1.2877663373947144 0.016948886215686798
20.480009078979492 20.315095901489258 20.065385818481445 0.3107893466949463 1.2667629718780518 0.02319100871682167
20.476150512695312 20.314321517944336 20.033180236816406 0.31192147731781006 1.2627414464950562 0.011660858988761902
20.501203536987305 20.327409744262695 20.14349365234375 0.30900606513023376 1.301850438117981 0.05078037828207016
20.518402099609375 20.317615509033203 20.131595611572266 0.3309972286224365 1.3226501941680908 0.04726607725024223
20.43733787536621 20.335500717163086 20.094335556030273 0.2647281289100647 1.2194584608078003 0.03183095157146454
20.436887741088867 20.330230712890625 20.06430435180664 0.2705433964729309 1.2159385681152344 0.02164684236049652
20.42020606994629 20.33782386779785 20.079553604125977 0.24881400167942047 1.1911652088165283 0.026273028925061226
20.461746215820312 20.328699111938477 20.109304428100586 0.2828497886657715 1.2477532625198364 0.037287574261426926
20.4393253326416 20.342100143432617 20.124130249023438 0.2566496431827545 1.2234034538269043 0.042028386145830154
20.460500717163086 20.340429306030273 20.1411075592041 0.27131205797195435 1.2520447969436646 0.048511896282434464
20.46074867248535 20.32294464111328 20.08057403564453 0.28976529836654663 1.243911623954773 0.027835048735141754
20.456729888916016 20.322019577026367 20.048341751098633 0.29185980558395386 1.239843487739563 0.016458287835121155
20.531503677368164 20.30388832092285 20.09743881225586 0.3580038547515869 1.3380382061004639 0.03540898114442825
20.530479431152344 20.299972534179688 20.074111938476562 0.36232778429985046 1.33436119556427 0.026492469012737274
20.532323837280273 20.309101104736328 20.120553970336914 0.3518003523349762 1.3422726392745972 0.04420483112335205
20.515615463256836 20.30389976501465 20.061935424804688 0.3467026352882385 1.3115988969802856 0.02196226455271244
20.530593872070312 20.296781539916992 20.04669952392578 0.36510738730430603 1.331233024597168 0.01698620244860649
20.45660400390625 20.32001495361328 20.022050857543945 0.2937679886817932 1.237392544746399 0.007153257727622986
20.49403190612793 20.307750701904297 20.020872116088867 0.33068162202835083 1.2850475311279297 0.007171507924795151
20.475061416625977 20.313623428344727 20.007957458496094 0.31249353289604187 1.2609139680862427 0.002410970162600279
20.44242286682129 20.349349975585938 20.15056037902832 0.24661992490291595 1.2278637886047363 0.05161721259355545
20.462419509887695 20.348541259765625 20.16642951965332 0.2604002058506012 1.2568234205245972 0.05777077376842499
20.828824996948242 20.286226272583008 19.667224884033203 0.5738295912742615 1.7405438423156738 -0.1352430284023285
20.809972763061523 20.284204483032227 19.682220458984375 0.5614979863166809 1.7118161916732788 -0.12948903441429138
20.825349807739258 20.269519805908203 19.69363021850586 0.5859425067901611 1.7204279899597168 -0.12601490318775177
20.806718826293945 20.268280029296875 19.70888900756836 0.5732877254486084 1.6929703950881958 -0.11982480436563492
20.822160720825195 20.254056930541992 19.720666885375977 0.5970762968063354 1.7017040252685547 -0.11621656268835068
20.87701988220215 20.296649932861328 19.624347686767578 0.6088276505470276 1.8338818550109863 -0.14856402575969696
20.863887786865234 20.292221069335938 19.638154983520508 0.5977969169616699 1.8015022277832031 -0.14488914608955383
20.872819900512695 20.27777671813965 19.649696350097656 0.6222443580627441 1.809837818145752 -0.1412547081708908
20.534591674804688 20.316654205322266 20.14742088317871 0.3439609110355377 1.3475397825241089 0.05345247685909271
20.868927001953125 20.26007080078125 19.675804138183594 0.6345844268798828 1.787030816078186 -0.1332309991121292
20.88350486755371 20.27096176147461 19.660062789916992 0.6440504789352417 1.8185862302780151 -0.13753163814544678
20.547861099243164 20.289493560791016 20.0317325592041 0.3838333487510681 1.3512049913406372 0.012037558481097221
20.52972984313965 20.29528045654297 20.019012451171875 0.3664923310279846 1.3293849229812622 0.007217445410788059
20.48111343383789 20.338834762573242 20.15702247619629 0.28502511978149414 1.2798250913619995 0.05457059293985367
20.482004165649414 20.34768295288086 20.181060791015625 0.2735779881477356 1.2854381799697876 0.06366506218910217
20.50002098083496 20.33710289001465 20.169939041137695 0.29806989431381226 1.307140588760376 0.060284145176410675
20.456457138061523 20.319547653198242 19.99616813659668 0.29377174377441406 1.2363766431808472 -0.0020601472351700068
20.493045806884766 20.30764389038086 19.99403190612793 0.33046507835388184 1.2840534448623657 -0.002385622588917613
20.474580764770508 20.314048767089844 19.98124122619629 0.31155940890312195 1.2605538368225098 -0.006940943188965321
20.833208084106445 20.2270450592041 19.76091194152832 0.6298591494560242 1.6932473182678223 -0.10189680010080338
20.84990882873535 20.226877212524414 19.745317459106445 0.6431872844696045 1.7188177108764648 -0.10859785974025726
20.836030960083008 20.240623474121094 19.732877731323242 0.6204357743263245 1.7102835178375244 -0.11247758567333221
20.550106048583984 20.300567626953125 20.110517501831055 0.3727233409881592 1.361124873161316 0.040731724351644516
20.171344757080078 20.429332733154297 20.182270050048828 -0.06914984434843063 0.7948902249336243 0.06805111467838287
20.152599334716797 20.435317993164062 20.187530517578125 -0.09742912650108337 0.7545611262321472 0.07078027725219727
20.17487144470215 20.43684959411621 20.20099449157715 -0.08554044365882874 0.7913684248924255 0.07565463334321976
20.876375198364258 20.23746681213379 19.713926315307617 0.6663845777511597 1.7744911909103394 -0.12055057287216187
20.89652442932129 20.245073318481445 19.696704864501953 0.6762312054634094 1.8046083450317383 -0.12566915154457092
20.879789352416992 20.253568649291992 19.68661117553711 0.655778169631958 1.7958192825317383 -0.1294541358947754
20.839130401611328 20.25556755065918 19.7054443359375 0.6099767684936523 1.7289016246795654 -0.12242509424686432
20.852935791015625 20.241260528564453 19.717472076416016 0.6334018111228943 1.737293004989624 -0.11872073262929916
20.455968856811523 20.320629119873047 19.96822738647461 0.29214394092559814 1.2365837097167969 -0.011278558522462845
20.43782615661621 20.326929092407227 20.037240982055664 0.2740251123905182 1.2132816314697266 0.012089688330888748
20.438257217407227 20.325353622436523 20.010801315307617 0.27534329891204834 1.211797833442688 0.0027847287710756063
20.86815643310547 20.311542510986328 19.613208770751953 0.5838835835456848 1.825457215309143 -0.15228916704654694
20.803733825683594 20.253633499145508 19.736167907714844 0.5840923190116882 1.6755450963974 -0.10964848846197128
20.819272994995117 20.239912033081055 19.74834632873535 0.6071946620941162 1.6844648122787476 -0.10584916174411774
20.419960021972656 20.333812713623047 20.05202293395996 0.25363022089004517 1.1885290145874023 0.0168349277228117
20.401168823242188 20.337907791137695 20.03866958618164 0.23642471432685852 1.1612013578414917 0.012144451960921288
20.40224838256836 20.34087371826172 20.066028594970703 0.2325257658958435 1.1631503105163574 0.0212927907705307
20.549102783203125 20.295631408691406 20.08548927307129 0.37793150544166565 1.3568476438522339 0.031409189105033875
20.54846954345703 20.29183006286621 20.058963775634766 0.3816465437412262 1.3534719944000244 0.02181595377624035
20.564823150634766 20.282630920410156 20.017702102661133 0.40225690603256226 1.3711137771606445 0.006906390190124512
20.54701805114746 20.28879165649414 20.004579544067383 0.3845570981502533 1.3501266241073608 0.0020734837744385004
20.856277465820312 20.25699806213379 19.690319061279297 0.6225675940513611 1.757306456565857 -0.12813661992549896
20.859939575195312 20.274009704589844 19.66386604309082 0.6106963157653809 1.7787563800811768 -0.13685014843940735
20.790674209594727 20.282934188842773 19.69742774963379 0.5490928292274475 1.684041142463684 -0.12329664081335068
20.4233341217041 20.350257873535156 20.135013580322266 0.23262158036231995 1.198625922203064 0.045625608414411545
20.40538215637207 20.359413146972656 20.147010803222656 0.20807220041751862 1.1733471155166626 0.049157045781612396
20.42521858215332 20.358497619628906 20.16139793395996 0.22173157334327698 1.2033193111419678 0.05503152310848236
20.8653621673584 20.24361228942871 19.70266342163086 0.6458439230918884 1.7656059265136719 -0.12445054203271866
20.813526153564453 20.301321029663086 19.656187057495117 0.5487624406814575 1.731979250907898 -0.1386500597000122
20.794023513793945 20.299297332763672 19.671106338500977 0.5366649031639099 1.703007698059082 -0.1328417956829071
20.501066207885742 20.347135543823242 20.195388793945312 0.286539763212204 1.313892126083374 0.0695575624704361
20.51854705810547 20.336345672607422 20.1846866607666 0.3110186755657196 1.3345024585723877 0.06620962917804718
20.48341178894043 20.358192443847656 20.206348419189453 0.2611483931541443 1.2922543287277222 0.0728449672460556
20.49271011352539 20.30889320373535 19.966304779052734 0.3287737965583801 1.2843904495239258 -0.011970189400017262
20.84625244140625 20.28923988342285 19.652605056762695 0.5860283374786377 1.7703962326049805 -0.14042401313781738
20.850269317626953 20.307844161987305 19.627254486083984 0.5725863575935364 1.7930864095687866 -0.1485074907541275
20.83259391784668 20.304109573364258 19.641521453857422 0.5607712268829346 1.7619718313217163 -0.14391885697841644
20.7746524810791 20.297819137573242 19.68622589111328 0.5244657397270203 1.674790859222412 -0.1266341507434845
20.568876266479492 20.297624588012695 20.125160217285156 0.38761380314826965 1.3847614526748657 0.04645515978336334
20.55152702331543 20.307151794433594 20.136638641357422 0.3659743368625641 1.3664385080337524 0.050118640065193176
20.421375274658203 20.343448638916016 20.107898712158203 0.24174250662326813 1.1945987939834595 0.036091990768909454
20.403369903564453 20.345428466796875 20.093175888061523 0.22639261186122894 1.1658750772476196 0.03055384010076523
20.152387619018555 20.448787689208984 20.21595573425293 -0.11663416028022766 0.7512770891189575 0.08119404315948486
20.90406608581543 20.280712127685547 19.643489837646484 0.6528195142745972 1.8513497114181519 -0.14116846024990082
20.887529373168945 20.289594650268555 19.634309768676758 0.6311882138252258 1.8426494598388672 -0.14480896294116974
20.79763412475586 20.316804885864258 19.64541244506836 0.5233343839645386 1.7232204675674438 -0.14193768799304962
20.778057098388672 20.31463050842285 19.6602725982666 0.5114280581474304 1.6938769817352295 -0.13606657087802887
20.437545776367188 20.32558250427246 19.982824325561523 0.27470558881759644 1.2114778757095337 -0.006337505765259266
20.55303192138672 20.315336227416992 20.163015365600586 0.3576980531215668 1.3729621171951294 0.0595351867377758
20.44478416442871 20.35799217224121 20.17612075805664 0.2351219803094864 1.2331326007843018 0.06099092960357666
20.46415138244629 20.357921600341797 20.191152572631836 0.24824613332748413 1.2627668380737305 0.06695511937141418
20.18758201599121 20.42374610900879 20.176429748535156 -0.03787582367658615 0.8313937187194824 0.06160975247621536
20.165197372436523 20.423542022705078 20.162883758544922 -0.05083909630775452 0.7959255576133728 0.05727700516581535
20.854562759399414 20.32754898071289 19.602630615234375 0.5582115650177002 1.8169385194778442 -0.1560308039188385
20.381458282470703 20.342435836791992 20.024974822998047 0.21885308623313904 1.1337151527404785 0.007628755643963814
20.38225555419922 20.344640731811523 20.052106857299805 0.215946763753891 1.135050654411316 0.01643664762377739
20.567890167236328 20.291597366333008 20.09862518310547 0.39349499344825745 1.37960684299469 0.036737315356731415
20.566774368286133 20.28709602355957 20.071853637695312 0.39790186285972595 1.375586986541748 0.026919865980744362
20.406147003173828 20.368986129760742 20.17408561706543 0.19624772667884827 1.1780176162719727 0.058376602828502655
20.38637351989746 20.380146026611328 20.18735122680664 0.170078307390213 1.1519412994384766 0.061840638518333435
20.406492233276367 20.38045883178711 20.201467514038086 0.1829371601343155 1.1833094358444214 0.06763065606355667
20.758676528930664 20.312891006469727 19.675268173217773 0.49940091371536255 1.6651625633239746 -0.12983590364456177
20.419837951660156 20.331491470336914 20.024959564208984 0.25624361634254456 1.1867868900299072 0.00754092400893569
20.418994903564453 20.330890655517578 19.99715805053711 0.25673213601112366 1.1860136985778809 -0.0014966859016567469
20.56570816040039 20.28410530090332 20.04486846923828 0.4008197486400604 1.3727495670318604 0.016977710649371147
20.83664894104004 20.323101043701172 19.61651039123535 0.54680335521698 1.7845897674560547 -0.15206566452980042
20.817352294921875 20.319589614868164 19.63079261779785 0.5351357460021973 1.75339674949646 -0.14731921255588531
20.404443740844727 20.351598739624023 20.12013053894043 0.21817399561405182 1.1692959070205688 0.03985591605305672
20.384281158447266 20.35374641418457 20.106002807617188 0.2034538984298706 1.1399061679840088 0.034400638192892075
20.59958267211914 20.269596099853516 19.98923683166504 0.43788427114486694 1.4106464385986328 -0.0038461401127278805
20.581958770751953 20.276718139648438 19.97585105895996 0.4195284843444824 1.3913682699203491 -0.008777778595685959
20.582069396972656 20.275997161865234 20.003578186035156 0.4202776551246643 1.3909380435943604 0.0016218572854995728
20.840988159179688 20.34311866760254 19.592191696166992 0.5319775342941284 1.8083453178405762 -0.15972378849983215
20.571077346801758 20.31399917602539 20.177532196044922 0.37139463424682617 1.3986374139785767 0.0656825453042984
20.56987762451172 20.305095672607422 20.151447296142578 0.38022539019584656 1.3911073207855225 0.056079085916280746
20.383228302001953 20.348403930664062 20.079126358032227 0.21078111231327057 1.1371424198150635 0.025386519730091095
20.42649269104004 20.381093978881836 20.215686798095703 0.19562198221683502 1.2146543264389038 0.07351891696453094
20.44639778137207 20.382036209106445 20.230010986328125 0.2081569880247116 1.2460002899169922 0.07939223200082779
20.44573211669922 20.36913299560547 20.203113555908203 0.22228294610977173 1.239151954650879 0.0701896995306015
20.143875122070312 20.42391014099121 20.149497985839844 -0.064578115940094 0.7601165771484375 0.05323933809995651
20.129621505737305 20.42934226989746 20.156784057617188 -0.09515003859996796 0.7224103212356567 0.058725081384181976
20.149015426635742 20.429035186767578 20.169139862060547 -0.08171838521957397 0.7587989568710327 0.06338962912559509
20.78173828125 20.33254051208496 19.634925842285156 0.49752774834632874 1.7141568660736084 -0.14510563015937805
20.762155532836914 20.330135345458984 19.649681091308594 0.4857628643512726 1.6843280792236328 -0.1391676664352417
20.38608169555664 20.369421005249023 20.159832000732422 0.18291865289211273 1.1473568677902222 0.0526263527572155
20.46617317199707 20.38327980041504 20.244354248046875 0.22055943310260773 1.2773483991622925 0.08529907464981079
20.485862731933594 20.3847599029541 20.2586669921875 0.23280979692935944 1.3087079524993896 0.09124955534934998
20.484743118286133 20.370634078979492 20.23259162902832 0.24757763743400574 1.3000134229660034 0.08203980326652527
20.56437110900879 20.282611846923828 19.990272521972656 0.402247816324234 1.370790719985962 -0.003274278249591589
20.183908462524414 20.416099548339844 20.154327392578125 -0.020826850086450577 0.8312950730323792 0.051013145595788956
20.16140365600586 20.416776657104492 20.140913009643555 -0.034889403730630875 0.7959566712379456 0.047230836004018784
20.74276351928711 20.32813262939453 19.664567947387695 0.4738629162311554 1.6550745964050293 -0.13291680812835693
20.426006317138672 20.36886978149414 20.18851089477539 0.20937034487724304 1.2086293697357178 0.064267098903656
20.589366912841797 20.312833786010742 20.192028045654297 0.38492560386657715 1.4244499206542969 0.07187174260616302
20.5877685546875 20.303220748901367 20.165773391723633 0.39426252245903015 1.4159276485443115 0.062164220958948135
20.46527862548828 20.3697452545166 20.21784782409668 0.23503395915031433 1.269612193107605 0.0760902613401413
20.492700576782227 20.311695098876953 19.938833236694336 0.32548585534095764 1.285935401916504 -0.02161567285656929
20.510807037353516 20.304088592529297 19.95152473449707 0.34550899267196655 1.3079570531845093 -0.017214134335517883
20.511051177978516 20.307727813720703 19.924171447753906 0.34147435426712036 1.3102781772613525 -0.02703125961124897
20.63507080078125 20.25741958618164 19.960050582885742 0.471973180770874 1.449955940246582 -0.015370343811810017
20.617652893066406 20.26565933227539 19.946561813354492 0.4529387056827545 1.4324179887771606 -0.02033020183444023
20.617294311523438 20.263383865356445 19.974721908569336 0.4550914466381073 1.4303256273269653 -0.009508746676146984
20.891427993774414 20.359886169433594 19.553077697753906 0.562216579914093 1.9123865365982056 -0.16689974069595337
20.877544403076172 20.353424072265625 19.56563377380371 0.5531328320503235 1.8765830993652344 -0.165426567196846
20.88633918762207 20.337759017944336 19.576040267944336 0.5788010954856873 1.8852555751800537 -0.1613008975982666
20.765884399414062 20.34842872619629 19.62468147277832 0.4713026285171509 1.7046266794204712 -0.14814923703670502
20.746286392211914 20.345788955688477 19.639347076416016 0.45963311195373535 1.6742753982543945 -0.14214587211608887
20.50259017944336 20.358732223510742 20.22145652770996 0.27384406328201294 1.321670651435852 0.07878788560628891
20.50412940979004 20.37178611755371 20.247209548950195 0.2599746584892273 1.3304026126861572 0.0880270004272461
20.52170181274414 20.35947608947754 20.23627471923828 0.2863682508468628 1.35108482837677 0.08485725522041321
20.400312423706055 20.336503982543945 20.011211395263672 0.2381211221218109 1.1601189374923706 0.0031698194798082113
20.380983352661133 20.341777801513672 19.997900009155273 0.21953240036964417 1.1331661939620972 -0.0010891177225857973
20.510948181152344 20.301979064941406 19.97904396057129 0.34790658950805664 1.3068673610687256 -0.0074036503210663795
20.52903938293457 20.295265197753906 19.991764068603516 0.3664678931236267 1.3287781476974487 -0.002696533454582095
20.528778076171875 20.296682357788086 19.964303970336914 0.36492300033569336 1.3294097185134888 -0.012678730301558971
20.174388885498047 20.45201301574707 20.22914695739746 -0.1052236407995224 0.7892043590545654 0.0860915258526802
20.821475982666016 20.338895797729492 19.606090545654297 0.520662784576416 1.7759602069854736 -0.15553130209445953
20.801538467407227 20.335412979125977 19.620365142822266 0.5091584920883179 1.7446253299713135 -0.15060625970363617
20.399845123291016 20.336652755737305 19.983911514282227 0.2376343309879303 1.1598764657974243 -0.005696240812540054
20.39980697631836 20.338342666625977 19.956878662109375 0.23510129749774933 1.1605302095413208 -0.014531093649566174
20.380874633789062 20.34263801574707 19.970975875854492 0.21805036067962646 1.1334108114242554 -0.009760642424225807
20.586450576782227 20.294986724853516 20.139310836791992 0.40222784876823425 1.4086235761642456 0.05233512073755264
20.36260414123535 20.34861946105957 20.038496017456055 0.1988709419965744 1.1067556142807007 0.011843484826385975
20.363372802734375 20.351608276367188 20.065317153930664 0.1946907937526703 1.1082831621170044 0.020477574318647385
20.4559383392334 20.323272705078125 19.94081687927246 0.2887127101421356 1.2378758192062378 -0.020555520430207253
20.43730354309082 20.32740020751953 19.955337524414062 0.2721844017505646 1.2121593952178955 -0.015470563434064388
20.4743595123291 20.315996170043945 19.953529357910156 0.3090381622314453 1.2613768577575684 -0.016359103843569756
20.546619415283203 20.28950309753418 19.977201461791992 0.3838029205799103 1.3503201007843018 -0.008023524656891823
20.564340591430664 20.284103393554688 19.962671279907227 0.40076056122779846 1.371778964996338 -0.013534295372664928
20.881515502929688 20.31666374206543 19.59978675842285 0.5943453311920166 1.8590508699417114 -0.1552213430404663
20.89647102355957 20.33026695251465 19.585294723510742 0.6020277142524719 1.8941470384597778 -0.15728236734867096
20.726844787597656 20.343542098999023 19.654142379760742 0.4478287100791931 1.6443991661071777 -0.13587607443332672
20.601871490478516 20.27890396118164 20.099679946899414 0.429411917924881 1.4198708534240723 0.03802897781133652
20.600923538208008 20.27430534362793 20.072359085083008 0.43367862701416016 1.415488839149475 0.027692187577486038
20.58424186706543 20.282875061035156 20.085641860961914 0.41382017731666565 1.3977097272872925 0.03234134614467621
20.520017623901367 20.347251892089844 20.21063232421875 0.29932206869125366 1.3422945737838745 0.0755481868982315
20.583276748657227 20.279069900512695 20.058488845825195 0.4174412190914154 1.3941410779953003 0.022199012339115143
20.585309982299805 20.288185119628906 20.112592697143555 0.4087478816509247 1.4025381803512573 0.042387738823890686
20.364320755004883 20.356143951416016 20.092050552368164 0.18827055394649506 1.1104490756988525 0.02921116352081299
20.36529541015625 20.362272262573242 20.11879539489746 0.17976747453212738 1.1132769584655762 0.038068536669015884
20.41861343383789 20.331863403320312 19.969717025756836 0.2551659047603607 1.1861834526062012 -0.010505863465368748
20.345413208007812 20.36414337158203 20.104951858520508 0.16502919793128967 1.083095908164978 0.03289826214313507
20.32570457458496 20.366355895996094 20.091333389282227 0.14990690350532532 1.05266535282135 0.028012055903673172
20.326139450073242 20.372657775878906 20.11823844909668 0.1410357654094696 1.0549437999725342 0.03654530271887779
20.14067268371582 20.417871475219727 20.127622604370117 -0.05017072707414627 0.7599443197250366 0.0438544899225235
20.12572479248047 20.424556732177734 20.136762619018555 -0.07977376133203506 0.7236393094062805 0.049447402358055115
20.75005531311035 20.364479064941406 19.614734649658203 0.4446171820163727 1.6945431232452393 -0.15105944871902466
20.730411529541016 20.361600875854492 19.629304885864258 0.4330001771450043 1.6635932922363281 -0.14499156177043915
20.456340789794922 20.32745933532715 19.913799285888672 0.2835603952407837 1.2402679920196533 -0.029851993545889854
20.474517822265625 20.31947898864746 19.926246643066406 0.3048345148563385 1.263376235961914 -0.025807218626141548
20.60443687438965 20.29254913330078 20.153635025024414 0.41656315326690674 1.4325917959213257 0.05837959796190262
20.582504272460938 20.276775360107422 20.03112030029297 0.4195910692214966 1.391867756843567 0.01195070892572403
20.385313034057617 20.360706329345703 20.13282012939453 0.19407758116722107 1.1433402299880981 0.04349672794342041
20.366025924682617 20.370187759399414 20.145782470703125 0.16927862167358398 1.1166586875915527 0.047057412564754486
20.346031188964844 20.380390167236328 20.15957260131836 0.14372573792934418 1.0891633033752441 0.05064277723431587
20.346017837524414 20.371259689331055 20.131921768188477 0.1553349643945694 1.0858708620071411 0.04168626666069031
20.325904846191406 20.38099479675293 20.145973205566406 0.1301390677690506 1.0576649904251099 0.04531671479344368
20.17890167236328 20.411399841308594 20.135007858276367 -0.0056747086346149445 0.8305163979530334 0.040783196687698364
20.155975341796875 20.412778854370117 20.12178611755371 -0.02099476009607315 0.7949487566947937 0.037362903356552124
20.825849533081055 20.359203338623047 19.582073211669922 0.5054092407226562 1.7996039390563965 -0.16332806646823883
20.48678970336914 20.40057945251465 20.284645080566406 0.21689367294311523 1.318237066268921 0.10048715025186539
20.505517959594727 20.38648796081543 20.272891998291016 0.24493131041526794 1.3400640487670898 0.09723694622516632
20.600181579589844 20.27120590209961 20.044830322265625 0.4365300238132477 1.4124728441238403 0.017243461683392525
20.599746704101562 20.269638061523438 20.017114639282227 0.4379245340824127 1.4108572006225586 0.0067234281450510025
20.603050231933594 20.284990310668945 20.126773834228516 0.4236902594566345 1.4255824089050293 0.04827677458524704
20.6227970123291 20.29029083251953 20.168149948120117 0.4306654632091522 1.4567012786865234 0.0645553320646286
20.60606575012207 20.301523208618164 20.18025016784668 0.40807074308395386 1.4408915042877197 0.06832144409418106
20.437538146972656 20.330738067626953 19.92824935913086 0.2678125202655792 1.2138882875442505 -0.02458800934255123
20.438201904296875 20.335590362548828 19.901487350463867 0.26167452335357666 1.216630458831787 -0.033721789717674255
20.47513771057129 20.32447624206543 19.899276733398438 0.29893332719802856 1.2664929628372192 -0.03526357561349869
20.457195281982422 20.333120346069336 19.887041091918945 0.2766818702220917 1.243714690208435 -0.039136096835136414
20.88266944885254 20.3758602142334 19.542985916137695 0.5363567471504211 1.9035838842391968 -0.17132437229156494
20.710901260375977 20.35915184020996 19.643951416015625 0.4212563633918762 1.6330474615097046 -0.1387171447277069
20.34457015991211 20.358823776245117 20.07834243774414 0.17266695201396942 1.0808148384094238 0.02429467812180519
20.418684005737305 20.334373474121094 19.942626953125 0.25167152285575867 1.187349796295166 -0.01947319321334362
20.50672149658203 20.402854919433594 20.298555374145508 0.22878000140190125 1.3505918979644775 0.10640988498926163
20.525148391723633 20.388404846191406 20.287052154541016 0.256934255361557 1.3714913129806519 0.10326673835515976
20.343273162841797 20.352861404418945 20.025188446044922 0.18127287924289703 1.0781370401382446 0.007432782091200352
20.324121475219727 20.357421875 20.012081146240234 0.1631491482257843 1.049026608467102 0.003262408310547471
20.324459075927734 20.35887336730957 20.038471221923828 0.16105984151363373 1.049654483795166 0.011412207037210464
20.565322875976562 20.291584014892578 19.90741729736328 0.39328092336654663 1.3777800798416138 -0.03413451090455055
20.547061920166016 20.29544448852539 19.922168731689453 0.37772244215011597 1.354567289352417 -0.028319522738456726
20.564666748046875 20.287097930908203 19.935014724731445 0.39777061343193054 1.3741124868392944 -0.023844104260206223
20.5827693939209 20.282751083374023 19.920272827148438 0.4136527180671692 1.3964101076126099 -0.029689164832234383
20.582210540771484 20.278976440429688 19.948049545288086 0.4173264503479004 1.3931893110275269 -0.01922842487692833
20.87270164489746 20.331989288330078 19.589038848876953 0.5689846873283386 1.8505175113677979 -0.15911144018173218
20.734174728393555 20.380666732788086 19.605045318603516 0.4174073338508606 1.683777928352356 -0.15381479263305664
20.714479446411133 20.377626419067383 19.619491577148438 0.4058082699775696 1.6521871089935303 -0.1476997286081314
20.366195678710938 20.380117416381836 20.17338752746582 0.15701895952224731 1.1205425262451172 0.05614654719829559
20.34551239013672 20.391496658325195 20.187658309936523 0.13031399250030518 1.0928895473480225 0.059852927923202515
20.365863800048828 20.391986846923828 20.20128631591797 0.14311279356479645 1.1250046491622925 0.0654759407043457
20.36210823059082 20.34716033935547 20.01165771484375 0.2007492482662201 1.105941891670227 0.0032711434178054333
20.343017578125 20.35215187072754 19.99858283996582 0.18214255571365356 1.07772696018219 -0.0008725051884539425
20.523481369018555 20.373119354248047 20.261680603027344 0.27222347259521484 1.3608351945877075 0.09407693147659302
20.54281997680664 20.374643325805664 20.276039123535156 0.2843640148639679 1.391338586807251 0.10019639134407043
20.386186599731445 20.392759323120117 20.215051651000977 0.15571346879005432 1.1571041345596313 0.07119487226009369
20.365934371948242 20.40504264831543 20.228208541870117 0.12759964168071747 1.1300166845321655 0.07508876919746399
20.325048446655273 20.361827850341797 20.064847946166992 0.1566048115491867 1.0508865118026733 0.01963980682194233
20.343793869018555 20.35508155822754 20.051780700683594 0.17812761664390564 1.0791738033294678 0.015825413167476654
20.493104934692383 20.316011428833008 19.911636352539062 0.3205171823501587 1.2886790037155151 -0.031243186444044113
20.511701583862305 20.312835693359375 19.896995544433594 0.3358401954174042 1.3138508796691895 -0.03682330250740051
20.49395751953125 20.32181167602539 19.88467788696289 0.31392571330070496 1.2926158905029297 -0.040832020342350006
20.135622024536133 20.41446304321289 20.1083984375 -0.03797920420765877 0.7584794759750366 0.034389644861221313
20.122922897338867 20.419025421142578 20.11488151550293 -0.06753651052713394 0.722925066947937 0.040788404643535614
20.80567741394043 20.355031967163086 19.595975875854492 0.4941975474357605 1.7671194076538086 -0.1588815450668335
20.78567123413086 20.35147476196289 19.61020278930664 0.48282700777053833 1.7355374097824097 -0.1537715494632721
20.641321182250977 20.28827476501465 20.182857513427734 0.4445857107639313 1.4809304475784302 0.07086927443742752