 TITLE="3D TRIANGULAR SURFACE DATA"
VARIABLES="X","Y","Z","U","V","W","P", "Fex", "Fey", "Fez","Finx","Finy","Finz","WSSx","WSSy","WSSz","AMForce"
 ZONE T="unstruc"N=        1757 E=        3355 F=FEPOINT  ET=TRIANGLE
  2.04576E+01  1.97446E+01  2.00961E+01  2.09655E-01 -5.76849E-01 -2.29342E-02 -2.27195E-01  6.39973E-05 -1.08198E-04 -1.42766E-05  3.93891E-03 -2.38935E+00 -1.83242E-03  1.41816E-05  4.73831E-06  7.53924E-06  1.50000E+01
  2.04778E+01  1.97535E+01  2.00964E+01  2.22211E-01 -6.08071E-01 -2.18301E-02 -1.90542E-01  2.97341E-05 -4.88767E-05 -6.44238E-06 -8.98172E-04 -1.18318E+00  1.74200E-03  6.42429E-06  2.24042E-06  3.46649E-06  1.50000E+01
  2.04731E+01  1.97550E+01  2.00755E+01  2.24605E-01 -6.04352E-01 -1.80913E-02 -1.96534E-01  5.10856E-05 -8.98276E-05 -9.49421E-06  9.47528E-04 -1.73359E+00 -1.73343E-03  8.95209E-06  3.40121E-06  4.13856E-06  1.50000E+01
  2.04552E+01  1.97367E+01  2.01267E+01  1.98409E-01 -5.65295E-01 -2.94853E-02 -1.92110E-01  4.98902E-05 -7.91145E-05 -1.27455E-05  1.68323E-03 -1.97407E+00 -2.35931E-03  1.33617E-05  3.76567E-06  8.23042E-06  1.50000E+01
  2.04744E+01  1.97476E+01  2.01172E+01  2.14543E-01 -5.97792E-01 -2.62384E-02 -2.05319E-01  4.23529E-05 -6.74271E-05 -1.06830E-05  3.02754E-03 -1.70368E+00  1.71287E-03  1.02069E-05  3.18762E-06  6.01833E-06  1.50000E+01
  2.04919E+01  1.97576E+01  2.01085E+01  2.28729E-01 -6.26831E-01 -2.42664E-02 -2.22374E-01  3.45495E-05 -5.32847E-05 -7.45288E-06  1.12206E-03 -1.53748E+00 -9.79543E-04  8.45422E-06  2.88158E-06  4.76403E-06  1.50000E+01
  2.04912E+01  1.97618E+01  2.00849E+01  2.34378E-01 -6.30536E-01 -1.93577E-02 -2.36558E-01  3.97265E-05 -6.62047E-05 -7.55441E-06  6.79793E-04 -1.55731E+00  4.26574E-04  7.63958E-06  2.87242E-06  3.84834E-06  1.50000E+01
  2.04704E+01  1.97571E+01  2.00489E+01  2.27949E-01 -6.03545E-01 -1.22033E-02 -2.56972E-01  7.44116E-05 -1.42611E-04 -1.08967E-05  2.20073E-03 -1.88600E+00 -1.00916E-03  8.95403E-06  3.65415E-06  3.12603E-06  1.50000E+01
  2.04531E+01  1.97477E+01  2.00651E+01  2.13976E-01 -5.75357E-01 -1.61506E-02 -2.94122E-01  7.13738E-05 -1.34514E-04 -1.31580E-05  2.89786E-03 -2.02773E+00 -6.09907E-04  1.10631E-05  4.14583E-06  4.64682E-06  1.50000E+01
  2.04511E+01  1.97497E+01  2.00367E+01  2.16919E-01 -5.75327E-01 -9.47703E-03 -3.49667E-01  7.23305E-05 -1.41491E-04 -8.82051E-06  2.39483E-03 -1.90596E+00 -3.88755E-04  9.36376E-06  3.84653E-06  2.24158E-06  1.50000E+01
  2.04736E+01  1.97405E+01  2.01430E+01  2.04439E-01 -5.88976E-01 -3.16935E-02 -1.61426E-01  4.08627E-05 -6.03486E-05 -1.00915E-05  1.65036E-03 -1.80724E+00 -1.03142E-03  1.19974E-05  3.14072E-06  7.98809E-06  1.50000E+01
  2.04916E+01  1.97516E+01  2.01326E+01  2.20726E-01 -6.20048E-01 -2.89263E-02 -1.36522E-01  3.60273E-05 -5.16690E-05 -7.98332E-06  2.47827E-03 -1.75315E+00 -2.01289E-06  1.04423E-05  3.11824E-06  6.53982E-06  1.50000E+01
  2.04151E+01  1.97268E+01  2.00951E+01  1.82595E-01 -5.11395E-01 -2.40262E-02 -3.07702E-01  4.94749E-05 -8.42760E-05 -1.05188E-05  2.17418E-03 -1.81591E+00 -1.03502E-03  1.33444E-05  4.22405E-06  6.48702E-06  1.50000E+01
  2.04140E+01  1.97310E+01  2.00666E+01  1.88577E-01 -5.15459E-01 -1.73437E-02 -3.16943E-01  4.98700E-05 -8.93512E-05 -7.96564E-06  2.52711E-03 -1.80346E+00 -6.51098E-04  1.18681E-05  4.21131E-06  4.61371E-06  1.50000E+01
  2.03950E+01  1.97212E+01  2.00805E+01  1.73700E-01 -4.83770E-01 -2.12184E-02 -3.20356E-01  4.54726E-05 -7.85873E-05 -7.86113E-06  2.35691E-03 -1.65589E+00 -9.16978E-04  1.28552E-05  4.20095E-06  5.56168E-06  1.50000E+01
  2.04356E+01  1.97322E+01  2.01102E+01  1.91190E-01 -5.39445E-01 -2.66949E-02 -2.54121E-01  5.15877E-05 -8.44679E-05 -1.18608E-05  2.01891E-03 -2.03328E+00 -1.01654E-03  1.41221E-05  4.25172E-06  7.84527E-06  1.50000E+01
  2.04159E+01  1.97209E+01  2.01231E+01  1.74400E-01 -5.04918E-01 -3.00594E-02 -2.54028E-01  4.86389E-05 -7.98878E-05 -1.26879E-05  1.92950E-03 -1.74664E+00 -1.16040E-03  1.43715E-05  3.94856E-06  7.98540E-06  1.50000E+01
  2.04357E+01  1.97252E+01  2.01384E+01  1.81365E-01 -5.31030E-01 -3.24342E-02 -2.08121E-01  4.80846E-05 -7.60759E-05 -1.37742E-05  2.01482E-03 -1.81091E+00 -1.44234E-03  1.41732E-05  3.70374E-06  8.43297E-06  1.50000E+01
  2.04346E+01  1.97374E+01  2.00809E+01  1.98618E-01 -5.44457E-01 -2.02061E-02 -2.48640E-01  5.88917E-05 -1.03906E-04 -1.11815E-05  2.51483E-03 -2.06004E+00 -7.08416E-04  1.28417E-05  4.36030E-06  6.41585E-06  1.50000E+01
  2.04328E+01  1.97406E+01  2.00519E+01  2.03115E-01 -5.46117E-01 -1.33709E-02 -2.96408E-01  6.35811E-05 -1.21066E-04 -9.64373E-06  2.61451E-03 -1.89425E+00 -3.40375E-04  1.07532E-05  4.13980E-06  3.41492E-06  1.50000E+01
  2.05083E+01  1.97676E+01  2.00969E+01  2.43135E-01 -6.54149E-01 -2.16772E-02 -2.50296E-01  3.91038E-05 -6.10332E-05 -7.83025E-06  1.26791E-03 -1.76983E+00 -8.22634E-04  8.64105E-06  3.18422E-06  4.53208E-06  1.50000E+01
  2.05073E+01  1.97713E+01  2.00717E+01  2.48413E-01 -6.56742E-01 -1.63707E-02 -1.82209E-01  4.77170E-05 -8.04359E-05 -7.89504E-06  1.48706E-03 -1.84240E+00 -7.82804E-05  8.14930E-06  3.32436E-06  3.42153E-06  1.50000E+01
  2.05090E+01  1.97625E+01  2.01218E+01  2.36202E-01 -6.49654E-01 -2.65847E-02 -1.76348E-01  3.61436E-05 -5.17904E-05 -7.17447E-06  1.62798E-03 -1.80621E+00 -9.33696E-04  9.96121E-06  3.25892E-06  5.95023E-06  1.50000E+01
  2.04891E+01  1.97643E+01  2.00602E+01  2.38437E-01 -6.30724E-01 -1.43320E-02 -2.40791E-01  6.51557E-05 -1.19587E-04 -1.07783E-05  1.56268E-03 -1.81057E+00 -6.80347E-04  8.34221E-06  3.42743E-06  3.27769E-06  1.50000E+01
  2.05062E+01  1.97737E+01  2.00458E+01  2.52240E-01 -6.57744E-01 -1.08388E-02 -1.86300E-01  7.33047E-05 -1.35885E-04 -9.37037E-06  2.08809E-03 -1.94511E+00 -3.35445E-04  8.02237E-06  3.50536E-06  2.54956E-06  1.50000E+01
  2.04317E+01  1.97423E+01  2.00236E+01  2.05595E-01 -5.46819E-01 -6.39763E-03 -3.14519E-01  5.81571E-05 -1.11662E-04 -4.11465E-06  2.66994E-03 -1.82454E+00 -1.35377E-04  9.43582E-06  3.86137E-06  1.57989E-06  1.50000E+01
  2.04691E+01  1.97585E+01  2.00214E+01  2.30069E-01 -6.03441E-01 -5.70960E-03 -2.59539E-01  8.32717E-05 -1.64026E-04 -5.62612E-06  2.49654E-03 -1.91690E+00 -3.74517E-04  8.38559E-06  3.62783E-06  1.45505E-06  1.50000E+01
  2.04502E+01  1.97506E+01  2.00087E+01  2.18320E-01 -5.75238E-01 -2.63421E-03 -2.17417E-01  6.56998E-05 -1.27976E-04 -1.80600E-06  2.69358E-03 -1.86971E+00 -7.16599E-05  8.58677E-06  3.66663E-06  4.63072E-07  1.50000E+01
  2.04167E+01  1.97138E+01  2.01503E+01  1.64388E-01 -4.96454E-01 -3.52527E-02 -1.45019E-01  4.32566E-05 -6.52716E-05 -1.14823E-05  2.12768E-03 -1.64982E+00 -1.47301E-03  1.46912E-05  3.32623E-06  9.15667E-06  1.50000E+01
  2.04364E+01  1.97174E+01  2.01653E+01  1.70207E-01 -5.21842E-01 -3.71122E-02 -1.51653E-01  4.06914E-05 -5.68579E-05 -9.91407E-06  2.18453E-03 -1.69785E+00 -1.61742E-03  1.48405E-05  3.12084E-06  9.77633E-06  1.50000E+01
  2.08042E+01  1.98316E+01  1.96726E+01  3.48801E-01 -1.06227E+00  5.84219E-02  3.35987E-01 -3.80645E-05  1.20718E-04 -7.54016E-05  2.56150E-03 -3.34368E+00  7.31457E-05  2.00012E-05  6.57079E-06 -5.81359E-06  1.50000E+01
  2.07850E+01  1.98306E+01  1.96875E+01  3.43979E-01 -1.03344E+00  5.39227E-02  3.37913E-01 -3.31905E-05  1.05794E-04 -6.39803E-05  2.25288E-03 -3.24999E+00 -1.29384E-05  1.94484E-05  6.47119E-06 -6.53802E-06  1.50000E+01
  2.08011E+01  1.98455E+01  1.96991E+01  3.68391E-01 -1.06440E+00  5.52126E-02  2.98400E-01 -2.34474E-05  9.13800E-05 -5.21251E-05  2.44609E-03 -3.34725E+00  2.79719E-05  1.98238E-05  7.07796E-06 -5.48627E-06  1.50000E+01
  2.07821E+01  1.98437E+01  1.97143E+01  3.62629E-01 -1.03597E+00  5.07674E-02  2.66476E-01 -2.12339E-05  8.18898E-05 -4.51224E-05  2.17618E-03 -3.25554E+00 -3.49527E-05  1.83239E-05  6.58344E-06 -5.92921E-06  1.50000E+01
  2.07983E+01  1.98582E+01  1.97261E+01  3.86293E-01 -1.06637E+00  5.14707E-02  2.76876E-01 -1.52048E-05  7.51458E-05 -3.83166E-05  2.34939E-03 -3.35067E+00 -4.24194E-06  1.93252E-05  7.42602E-06 -5.00137E-06  1.50000E+01
  2.08633E+01  1.98303E+01  1.96292E+01  3.58582E-01 -1.15342E+00  7.53989E-02  2.92999E-01 -2.30127E-05  1.24420E-04 -8.80274E-05  3.52292E-03 -3.63961E+00  1.00903E-03  2.57612E-05  7.72027E-06 -4.03365E-06  1.50000E+01
  2.08433E+01  1.98316E+01  1.96434E+01  3.56366E-01 -1.12245E+00  6.92688E-02  3.23222E-01 -3.34736E-05  1.33160E-04 -9.02180E-05  3.27736E-03 -3.53924E+00  6.20679E-04  2.33553E-05  7.34489E-06 -4.54252E-06  1.50000E+01
  2.08594E+01  1.98463E+01  1.96548E+01  3.81665E-01 -1.15424E+00  7.20586E-02  2.71261E-01 -1.71862E-05  1.06476E-04 -6.78401E-05  3.38975E-03 -3.64065E+00  8.17436E-04  2.48371E-05  8.65978E-06 -3.01476E-06  1.50000E+01
  2.05096E+01  1.97562E+01  2.01469E+01  2.27385E-01 -6.43877E-01 -3.11101E-02 -1.30336E-01  2.96404E-05 -3.48558E-05 -3.83895E-06  2.40843E-03 -1.87783E+00 -4.94910E-04  1.12382E-05  3.22498E-06  7.25440E-06  1.50000E+01
  2.08559E+01  1.98612E+01  1.96810E+01  4.02928E-01 -1.15497E+00  6.80454E-02  2.76728E-01 -3.12545E-06  7.01667E-05 -3.88057E-05  3.26661E-03 -3.64147E+00  6.43222E-04  2.36685E-05  9.13449E-06 -2.19229E-06  1.50000E+01
  2.08756E+01  1.98606E+01  1.96664E+01  4.06591E-01 -1.18542E+00  7.44656E-02  3.17729E-01  1.99980E-05  3.03831E-05 -1.33019E-05  3.44454E-03 -3.74040E+00  9.18470E-04  2.63040E-05  1.02058E-05 -9.69140E-07  1.50000E+01
  2.05237E+01  1.97830E+01  2.00317E+01  2.65814E-01 -6.84805E-01 -7.46420E-03 -1.89284E-01  8.41426E-05 -1.55920E-04 -7.48841E-06  2.42267E-03 -2.04923E+00 -1.37668E-04  7.97160E-06  3.65487E-06  1.77089E-06  1.50000E+01
  2.05055E+01  1.97751E+01  2.00191E+01  2.54484E-01 -6.58162E-01 -4.87981E-03 -2.04281E-01  9.61635E-05 -1.85841E-04 -5.50337E-06  2.60466E-03 -1.99922E+00 -2.74284E-04  7.70534E-06  3.52624E-06  1.13930E-06  1.50000E+01
  2.04550E+01  1.97291E+01  2.01539E+01  1.87506E-01 -5.56054E-01 -3.45490E-02 -1.85439E-01  4.46367E-05 -6.69118E-05 -1.25315E-05  1.80623E-03 -1.79835E+00 -1.62995E-03  1.36426E-05  3.24798E-06  8.92926E-06  1.50000E+01
  2.04559E+01  1.97208E+01  2.01800E+01  1.75531E-01 -5.46893E-01 -3.86654E-02 -1.08138E-01  3.40552E-05 -4.11915E-05 -5.57157E-06  2.33209E-03 -1.73265E+00 -1.61752E-03  1.46030E-05  2.81187E-06  1.01408E-05  1.50000E+01
  2.04741E+01  1.97328E+01  2.01689E+01  1.93210E-01 -5.80645E-01 -3.62661E-02 -1.30892E-01  3.26673E-05 -3.95873E-05 -4.98420E-06  2.02648E-03 -1.79802E+00 -1.37973E-03  1.32714E-05  2.92261E-06  9.20635E-06  1.50000E+01
  2.04312E+01  1.97427E+01  1.99957E+01  2.06181E-01 -5.46522E-01  6.51590E-04 -2.80396E-01  5.60131E-05 -1.07760E-04  6.06966E-07  2.74041E-03 -1.78442E+00  1.22828E-04  8.92409E-06  3.71788E-06 -2.00281E-07  1.50000E+01
  2.04686E+01  1.97587E+01  1.99939E+01  2.30509E-01 -6.02954E-01  9.68019E-04 -2.28391E-01  8.53028E-05 -1.69392E-04  1.51548E-06  2.78123E-03 -1.91286E+00  8.43934E-06  8.31059E-06  3.63555E-06 -4.51997E-07  1.50000E+01
  2.04498E+01  1.97503E+01  1.99811E+01  2.17861E-01 -5.74292E-01  4.23224E-03 -2.64348E-01  6.53630E-05 -1.27730E-04  3.87294E-06  2.77422E-03 -1.84240E+00  1.99323E-04  8.64196E-06  3.65709E-06 -1.12262E-06  1.50000E+01
  2.08120E+01  1.98836E+01  1.97661E+01  4.25170E-01 -1.09797E+00  4.73194E-02  2.42772E-01 -2.20655E-05  9.24475E-05 -3.90449E-05  2.45634E-03 -3.44753E+00  5.49813E-05  2.05170E-05  8.62819E-06 -3.95469E-06  1.50000E+01
  2.08308E+01  1.98861E+01  1.97506E+01  4.32917E-01 -1.12682E+00  5.25757E-02  2.33164E-01 -1.28150E-05  8.03833E-05 -3.53968E-05  2.74603E-03 -3.54391E+00  1.98907E-04  2.16769E-05  8.88286E-06 -3.46960E-06  1.50000E+01
  2.08145E+01  1.98724E+01  1.97383E+01  4.09735E-01 -1.09667E+00  5.21026E-02  2.66799E-01 -1.38101E-05  7.75149E-05 -3.66626E-05  2.54201E-03 -3.44647E+00  8.03297E-05  2.08501E-05  8.40450E-06 -4.15700E-06  1.50000E+01
  2.05262E+01  1.97734E+01  2.01098E+01  2.51743E-01 -6.78452E-01 -2.39236E-02 -1.92308E-01  3.58465E-05 -5.09344E-05 -6.21229E-06  1.83403E-03 -1.94597E+00 -8.32444E-04  9.68522E-06  3.46567E-06  5.41075E-06  1.50000E+01
  2.01429E+01  1.96168E+01  2.01883E+01  4.88851E-03  9.07128E-03 -2.30923E-02  2.69481E-02  3.06930E-05  4.80232E-05  1.36100E-05  1.44712E-03 -1.46644E-02 -9.03224E-03  3.78672E-05  4.87900E-06  3.10406E-06  1.50000E+01
  2.01224E+01  1.96117E+01  2.02001E+01 -8.89222E-03  1.06110E-01 -1.19898E-02 -3.06856E-01  4.38843E-05  9.72219E-06  5.23096E-06 -3.97793E-03  2.95424E-01 -4.94708E-03  4.82787E-05  3.09446E-06  3.85924E-06  1.50000E+01
  2.01432E+01  1.96107E+01  2.02130E+01 -9.03468E-03  8.19517E-02 -1.33765E-02 -1.99982E-01  4.71876E-05  7.88731E-06  4.82281E-06 -1.44199E-03  2.24578E-01 -6.05890E-03  5.14260E-05  4.22666E-06  4.78892E-06  1.50000E+01
  2.08689E+01  1.98888E+01  1.97200E+01  4.46185E-01 -1.18593E+00  6.45232E-02  1.55390E-01  1.40499E-05  3.73833E-05 -1.48741E-05  3.31827E-03 -3.73956E+00  6.38760E-04  2.51309E-05  1.03870E-05 -9.58570E-07  1.50000E+01
  2.08883E+01  1.98889E+01  1.97049E+01  4.51322E-01 -1.21580E+00  7.10356E-02  4.42392E-02  1.19001E-05  1.00678E-05 -2.73777E-06  3.10407E-02 -1.97778E+00  8.31538E-03  1.37879E-05  5.56615E-06 -2.98680E-07  1.50000E+01
  2.08721E+01  1.98752E+01  1.96928E+01  4.27327E-01 -1.18570E+00  6.97767E-02  8.60794E-02  1.97002E-05  2.46021E-05 -8.35560E-06  3.37957E-03 -3.74014E+00  7.62472E-04  2.56294E-05  1.03964E-05 -8.47980E-07  1.50000E+01
  2.08172E+01  1.98600E+01  1.97109E+01  3.92553E-01 -1.09523E+00  5.64426E-02  2.67911E-01 -1.38727E-05  7.78278E-05 -4.12564E-05  2.63690E-03 -3.44466E+00  1.22382E-04  2.08434E-05  7.95153E-06 -4.39833E-06  1.50000E+01
  2.08334E+01  1.98741E+01  1.97230E+01  4.16436E-01 -1.12587E+00  5.75199E-02  2.57487E-01 -7.95502E-06  7.18405E-05 -3.52214E-05  2.84853E-03 -3.54316E+00  2.62293E-04  2.23229E-05  8.77862E-06 -3.63633E-06  1.50000E+01
  2.04310E+01  1.97416E+01  1.99682E+01  2.04820E-01 -5.45002E-01  7.62681E-03 -3.19283E-01  5.78728E-05 -1.11557E-04  5.33235E-06  2.66564E-03 -1.75504E+00  3.33412E-04  9.30450E-06  3.74114E-06 -2.02898E-06  1.50000E+01
  2.04130E+01  1.97336E+01  2.00383E+01  1.92302E-01 -5.17514E-01 -1.03024E-02 -2.48981E-01  4.94502E-05 -9.10751E-05 -4.98192E-06  2.64275E-03 -1.75488E+00 -2.69239E-04  1.02842E-05  3.99575E-06  2.50361E-06  1.50000E+01
  2.04124E+01  1.97348E+01  2.00102E+01  1.93981E-01 -5.18130E-01 -3.11441E-03 -2.40991E-01  4.88576E-05 -9.11470E-05 -1.42871E-06  2.68078E-03 -1.71641E+00  6.52473E-06  9.76376E-06  3.94735E-06  6.85825E-07  1.50000E+01
  2.08472E+01  1.98153E+01  1.96181E+01  3.32820E-01 -1.12110E+00  7.19194E-02  3.84835E-01 -3.71693E-05  1.46886E-04 -1.09174E-04  3.45709E-03 -3.53676E+00  7.93856E-04  2.39340E-05  6.40025E-06 -5.31807E-06  1.50000E+01
  2.07795E+01  1.98558E+01  1.97415E+01  3.79608E-01 -1.03830E+00  4.70981E-02  2.61507E-01 -1.92983E-05  7.80774E-05 -3.83182E-05  2.10729E-03 -3.25890E+00 -4.21102E-05  1.81949E-05  7.05956E-06 -5.47341E-06  1.50000E+01
  2.07957E+01  1.98699E+01  1.97537E+01  4.02487E-01 -1.06816E+00  4.72497E-02  2.45041E-01 -2.01364E-05  8.45723E-05 -3.82846E-05  2.25640E-03 -3.35254E+00 -1.85381E-05  1.97919E-05  8.14319E-06 -4.63352E-06  1.50000E+01
  2.03942E+01  1.97247E+01  2.00525E+01  1.78528E-01 -4.87323E-01 -1.42814E-02 -3.17303E-01  4.63650E-05 -8.39256E-05 -5.97183E-06  2.53813E-03 -1.65068E+00 -5.31241E-04  1.13112E-05  4.10425E-06  3.39867E-06  1.50000E+01
  2.03746E+01  1.97183E+01  2.00386E+01  1.68212E-01 -4.59316E-01 -1.10354E-02 -2.69335E-01  4.25023E-05 -7.63464E-05 -3.85558E-06  2.51735E-03 -1.52668E+00 -4.53782E-04  1.13341E-05  4.15335E-06  2.53158E-06  1.50000E+01
  2.03752E+01  1.97156E+01  2.00662E+01  1.64468E-01 -4.56339E-01 -1.82194E-02 -2.61059E-01  4.16686E-05 -7.17883E-05 -5.58524E-06  2.45456E-03 -1.52910E+00 -8.25154E-04  1.22698E-05  4.07422E-06  4.74975E-06  1.50000E+01
  2.05253E+01  1.97779E+01  2.00842E+01  2.58016E-01 -6.81791E-01 -1.87326E-02 -2.02300E-01  3.99956E-05 -6.12909E-05 -6.21961E-06  1.83927E-03 -1.95833E+00 -5.49615E-04  8.83690E-06  3.48810E-06  4.34496E-06  1.50000E+01
  2.05244E+01  1.97811E+01  2.00582E+01  2.62718E-01 -6.83850E-01 -1.32022E-02 -1.76599E-01  5.79712E-05 -1.00026E-04 -8.17176E-06  2.07290E-03 -2.00505E+00 -1.51621E-04  8.40601E-06  3.63370E-06  3.11495E-06  1.50000E+01
  2.05414E+01  1.97921E+01  2.00178E+01  2.78982E-01 -7.11496E-01 -4.21123E-03 -1.37729E-01  8.62873E-05 -1.58495E-04 -4.10981E-06  2.48071E-03 -2.14052E+00 -3.15660E-05  7.80463E-06  3.71793E-06  1.01195E-06  1.50000E+01
  2.05233E+01  1.97838E+01  2.00049E+01  2.67136E-01 -6.84943E-01 -1.50493E-03 -2.15506E-01  1.02490E-04 -1.94983E-04 -1.25637E-06  2.64763E-03 -2.07620E+00 -9.24192E-05  7.73217E-06  3.64646E-06  2.58129E-07  1.50000E+01
  2.08364E+01  1.98610E+01  1.96959E+01  3.98176E-01 -1.12482E+00  6.19939E-02  2.87780E-01 -1.28725E-05  8.34632E-05 -4.57278E-05  2.96402E-03 -3.54239E+00  3.46788E-04  2.25152E-05  8.56246E-06 -3.54632E-06  1.50000E+01
  2.08397E+01  1.98468E+01  1.96693E+01  3.78153E-01 -1.12369E+00  6.59345E-02  3.24639E-01 -2.55145E-05  1.12663E-04 -6.92800E-05  3.12226E-03 -3.54156E+00  4.74152E-04  2.26127E-05  7.97724E-06 -3.87543E-06  1.50000E+01
  2.07660E+01  1.98289E+01  1.97026E+01  3.38773E-01 -1.00550E+00  5.00597E-02  2.87772E-01 -2.95460E-05  9.43575E-05 -5.55876E-05  2.05314E-03 -3.16014E+00 -1.79909E-06  1.85933E-05  6.17426E-06 -7.12622E-06  1.50000E+01
  2.03969E+01  1.97100E+01  2.01355E+01  1.58030E-01 -4.70644E-01 -3.31868E-02 -2.29008E-01  4.99846E-05 -8.36682E-05 -1.54829E-05  2.19490E-03 -1.57299E+00 -1.42956E-03  1.48483E-05  3.66006E-06  8.38694E-06  1.50000E+01
  2.03780E+01  1.96991E+01  2.01476E+01  1.41691E-01 -4.35680E-01 -3.60179E-02 -1.79524E-01  4.79157E-05 -7.74559E-05 -1.50218E-05  2.39200E-03 -1.43670E+00 -1.75191E-03  1.61926E-05  3.60419E-06  9.04490E-06  1.50000E+01
  2.03980E+01  1.97025E+01  2.01621E+01  1.47432E-01 -4.61197E-01 -3.78321E-02 -1.62462E-01  4.19842E-05 -6.17840E-05 -1.12428E-05  2.39373E-03 -1.51486E+00 -1.76009E-03  1.57695E-05  3.17150E-06  9.77878E-06  1.50000E+01
  2.08527E+01  1.98751E+01  1.97078E+01  4.22371E-01 -1.15562E+00  6.34456E-02  2.18591E-01 -4.26380E-08  6.03921E-05 -2.96373E-05  3.14970E-03 -3.64165E+00  5.12579E-04  2.30766E-05  9.19147E-06 -2.24543E-06  1.50000E+01
  2.07882E+01  1.98164E+01  1.96613E+01  3.23684E-01 -1.03071E+00  5.65151E-02  3.42588E-01 -4.90982E-05  1.36332E-04 -8.96722E-05  2.36098E-03 -3.24426E+00  2.10045E-05  1.98430E-05  6.09092E-06 -6.80218E-06  1.50000E+01
  2.07690E+01  1.98153E+01  1.96762E+01  3.19352E-01 -1.00236E+00  5.26430E-02  3.20654E-01 -4.42580E-05  1.22707E-04 -7.80960E-05  2.11049E-03 -3.15250E+00  1.75881E-05  1.94731E-05  6.00654E-06 -7.55140E-06  1.50000E+01
  2.04752E+01  1.97241E+01  2.01945E+01  1.80478E-01 -5.71775E-01 -3.99216E-02 -8.68777E-02  2.64174E-05 -2.31077E-05  1.39568E-07  2.56686E-03 -1.78143E+00 -1.54195E-03  1.46528E-05  2.67962E-06  1.03321E-05  1.50000E+01
  2.04931E+01  1.97365E+01  2.01834E+01  1.98701E-01 -6.05254E-01 -3.77285E-02 -1.22769E-01  2.30929E-05 -1.72298E-05  2.22971E-06  2.47328E-03 -1.84962E+00 -1.24478E-03  1.37882E-05  2.92194E-06  9.67141E-06  1.50000E+01
  2.04572E+01  1.97116E+01  2.02056E+01  1.61893E-01 -5.36779E-01 -4.17878E-02 -9.67156E-02  2.86049E-05 -2.64582E-05 -1.28226E-06  2.59011E-03 -1.69780E+00 -1.78111E-03  1.57345E-05  2.59169E-06  1.07423E-05  1.50000E+01
  2.04684E+01  1.97576E+01  1.99666E+01  2.29019E-01 -6.01486E-01  7.61421E-03 -2.68118E-01  8.06342E-05 -1.58502E-04  8.48635E-06  2.75052E-03 -1.90030E+00  2.37635E-04  8.56374E-06  3.60852E-06 -2.24774E-06  1.50000E+01
  2.08236E+01  1.98320E+01  1.96579E+01  3.53019E-01 -1.09199E+00  6.35615E-02  3.40546E-01 -3.79214E-05  1.29612E-04 -8.43602E-05  2.92892E-03 -3.44074E+00  2.89568E-04  2.16089E-05  6.95312E-06 -5.26068E-06  1.50000E+01
  2.08273E+01  1.98165E+01  1.96322E+01  3.30687E-01 -1.09018E+00  6.62169E-02  3.44321E-01 -4.41388E-05  1.46959E-04 -1.04084E-04  3.10189E-03 -3.43659E+00  4.06838E-04  2.25534E-05  6.52879E-06 -5.72510E-06  1.50000E+01
  2.08076E+01  1.98168E+01  1.96466E+01  3.27547E-01 -1.06000E+00  6.10476E-02  3.56113E-01 -4.89372E-05  1.44001E-04 -9.79139E-05  2.71586E-03 -3.33937E+00  1.47358E-04  2.05422E-05  6.13158E-06 -6.17143E-06  1.50000E+01
  2.07499E+01  1.98136E+01  1.96912E+01  3.14739E-01 -9.74899E-01  4.93852E-02  2.91264E-01 -4.03687E-05  1.11357E-04 -6.85548E-05  1.98110E-03 -3.06463E+00  8.95241E-05  1.85395E-05  5.75090E-06 -7.87853E-06  1.50000E+01
  2.05444E+01  1.97792E+01  2.01234E+01  2.60097E-01 -7.03159E-01 -2.60205E-02 -1.44111E-01  3.14573E-05 -3.90656E-05 -4.20198E-06  2.24046E-03 -2.07158E+00 -7.40371E-04  1.04467E-05  3.65926E-06  5.96143E-06  1.50000E+01
  2.05271E+01  1.97677E+01  2.01354E+01  2.43808E-01 -6.73914E-01 -2.86676E-02 -1.33939E-01  3.04678E-05 -3.70290E-05 -4.31229E-06  2.18900E-03 -1.96644E+00 -8.39180E-04  1.08212E-05  3.45150E-06  6.60518E-06  1.50000E+01
  2.03959E+01  1.97163E+01  2.01082E+01  1.66833E-01 -4.78229E-01 -2.75928E-02 -2.56616E-01  4.73449E-05 -7.96646E-05 -1.12974E-05  2.26069E-03 -1.62804E+00 -1.20807E-03  1.37508E-05  3.89624E-06  7.24299E-06  1.50000E+01
  2.03760E+01  1.97114E+01  2.00937E+01  1.58772E-01 -4.51444E-01 -2.49253E-02 -2.92691E-01  4.16202E-05 -6.94715E-05 -8.00380E-06  2.38308E-03 -1.51436E+00 -1.17363E-03  1.36204E-05  4.11189E-06  6.03990E-06  1.50000E+01
  2.01226E+01  1.96062E+01  2.02248E+01 -2.09845E-02  1.96890E-01  0.00000E+00 -2.63582E-01  2.52624E-05 -9.28054E-06  5.49763E-07 -1.84062E+00  3.20894E-01 -4.33875E+00  2.88284E-05  1.04698E-06  3.23178E-06  1.50000E+01
  2.08956E+01  1.98591E+01  1.96520E+01  4.09022E-01 -1.21597E+00  8.11216E-02  1.91278E-01  1.21605E-05  1.58276E-05 -6.54727E-06  2.94052E-02 -1.98045E+00  1.00427E-02  1.43202E-05  5.46242E-06 -1.57085E-07  1.50000E+01
  2.08794E+01  1.98448E+01  1.96406E+01  3.83973E-01 -1.18507E+00  7.84962E-02  1.82701E-01 -3.10416E-06  8.91989E-05 -5.74966E-05  3.53979E-03 -3.74056E+00  1.13810E-03  2.69179E-05  9.11733E-06 -2.21942E-06  1.50000E+01
  2.07722E+01  1.98007E+01  1.96503E+01  2.98323E-01 -9.98998E-01  5.46330E-02  3.32411E-01 -5.80839E-05  1.49071E-04 -1.02598E-04  2.19776E-03 -3.14468E+00  4.34821E-05  2.03400E-05  5.69391E-06 -8.06617E-06  1.50000E+01
  2.07530E+01  1.97997E+01  1.96651E+01  2.94529E-01 -9.71122E-01  5.14095E-02  3.17249E-01 -5.59524E-05  1.40156E-04 -9.33154E-05  2.01929E-03 -3.05484E+00  1.12399E-04  1.92516E-05  5.45094E-06 -8.34388E-06  1.50000E+01
  2.04122E+01  1.97345E+01  1.99826E+01  1.93687E-01 -5.17357E-01  4.07314E-03 -2.38078E-01  4.80167E-05 -8.96442E-05  2.05985E-06  2.65725E-03 -1.68448E+00  2.43144E-04  9.57563E-06  3.86117E-06 -1.11932E-06  1.50000E+01
  2.05282E+01  1.97608E+01  2.01609E+01  2.34030E-01 -6.68371E-01 -3.29702E-02 -1.43125E-01  2.32326E-05 -1.92548E-05  7.18907E-07  2.54222E-03 -1.98856E+00 -6.93560E-04  1.18664E-05  3.32447E-06  7.64977E-06  1.50000E+01
  2.04178E+01  1.97057E+01  2.01767E+01  1.52699E-01 -4.86541E-01 -3.94119E-02 -1.54538E-01  3.56594E-05 -4.48392E-05 -6.78684E-06  2.43872E-03 -1.58145E+00 -1.79332E-03  1.56538E-05  2.93777E-06  1.01335E-05  1.50000E+01
  2.04376E+01  1.97087E+01  2.01912E+01  1.57506E-01 -5.11716E-01 -4.07376E-02 -1.38691E-01  3.20810E-05 -3.52722E-05 -3.90613E-06  2.49897E-03 -1.63945E+00 -1.82413E-03  1.56850E-05  2.71478E-06  1.05589E-05  1.50000E+01
  2.01629E+01  1.96235E+01  2.01765E+01  1.97471E-02 -6.08607E-02 -3.06992E-02  6.05288E-02  2.13790E-05  5.83456E-05  1.88709E-05  4.32819E-03 -2.23401E-01 -9.47380E-03  3.25915E-05  5.51667E-06  4.38088E-06  1.50000E+01
  2.01424E+01  1.96227E+01  2.01636E+01  1.71064E-02 -4.73002E-02 -2.81657E-02  8.06025E-02  2.09729E-05  6.62805E-05  1.84508E-05  3.61688E-03 -1.86691E-01 -9.35390E-03  3.31225E-05  5.39564E-06  3.98249E-06  1.50000E+01
  2.08312E+01  1.98000E+01  1.96071E+01  3.06656E-01 -1.08824E+00  6.81789E-02  4.28602E-01 -4.91294E-05  1.64494E-04 -1.26651E-04  3.30951E-03 -3.43245E+00  5.56399E-04  2.34874E-05  5.85626E-06 -6.33288E-06  1.50000E+01
  2.03550E+01  1.97118E+01  2.00251E+01  1.57555E-01 -4.31104E-01 -7.60729E-03 -3.18296E-01  3.95290E-05 -7.18090E-05 -2.21596E-06  2.45597E-03 -1.41519E+00 -3.40977E-04  1.13820E-05  4.14636E-06  1.59060E-06  1.50000E+01
  2.03555E+01  1.97098E+01  2.00523E+01  1.54836E-01 -4.28791E-01 -1.50113E-02 -3.30900E-01  4.42870E-05 -8.12864E-05 -5.92727E-06  2.43550E-03 -1.41640E+00 -7.19576E-04  1.24655E-05  4.28661E-06  3.14249E-06  1.50000E+01
  2.05434E+01  1.97843E+01  2.00973E+01  2.67310E-01 -7.06780E-01 -2.10238E-02 -2.18342E-01  3.60168E-05 -5.08952E-05 -5.46413E-06  2.16183E-03 -2.07385E+00 -5.75310E-04  9.43894E-06  3.65575E-06  4.86564E-06  1.50000E+01
  2.05426E+01  1.97882E+01  2.00711E+01  2.72876E-01 -7.09353E-01 -1.56448E-02 -2.01676E-01  4.39919E-05 -6.89753E-05 -6.05931E-06  2.21237E-03 -2.09077E+00 -3.29645E-04  8.73232E-06  3.70575E-06  3.65104E-06  1.50000E+01
  2.03792E+01  1.96911E+01  2.01738E+01  1.30346E-01 -4.24799E-01 -4.00196E-02 -1.73979E-01  4.11926E-05 -5.85055E-05 -1.10044E-05  2.43781E-03 -1.38852E+00 -2.07206E-03  1.70249E-05  3.13943E-06  1.00547E-05  1.50000E+01
  2.03605E+01  1.96797E+01  2.01855E+01  1.13135E-01 -3.87009E-01 -4.16792E-02 -1.26781E-01  3.52178E-05 -4.06940E-05 -5.34968E-06  2.49071E-03 -1.25945E+00 -2.44016E-03  1.86307E-05  3.11434E-06  1.05443E-05  1.50000E+01
  2.03806E+01  1.96820E+01  2.01996E+01  1.17085E-01 -4.11907E-01 -4.27355E-02 -1.53941E-01  2.73318E-05 -2.06679E-05  2.59788E-06  2.49662E-03 -1.33719E+00 -2.41566E-03  1.84250E-05  2.59774E-06  1.15860E-05  1.50000E+01
  2.07339E+01  1.97981E+01  1.96800E+01  2.90525E-01 -9.44062E-01  4.87501E-02  2.86910E-01 -4.85695E-05  1.24086E-04 -8.00590E-05  1.94849E-03 -2.96854E+00  2.24999E-04  1.87006E-05  5.29155E-06 -8.74824E-06  1.50000E+01
  2.03935E+01  1.97267E+01  2.00246E+01  1.81297E-01 -4.89078E-01 -7.03388E-03 -2.94655E-01  4.87702E-05 -9.18391E-05 -3.29422E-06  2.61657E-03 -1.62960E+00 -1.81311E-04  1.04582E-05  4.05622E-06  1.55925E-06  1.50000E+01
  2.03932E+01  1.97272E+01  1.99970E+01  1.82067E-01 -4.89206E-01  3.17028E-04 -2.92367E-01  4.93838E-05 -9.42755E-05  2.20901E-07  2.60152E-03 -1.60522E+00  1.05904E-04  1.01509E-05  4.01111E-06 -2.15695E-07  1.50000E+01
  2.05419E+01  1.97908E+01  2.00446E+01  2.76794E-01 -7.10901E-01 -1.00045E-02 -1.26238E-01  6.52571E-05 -1.14003E-04 -7.25060E-06  2.34021E-03 -2.11683E+00 -8.81181E-05  8.22776E-06  3.75683E-06  2.39896E-06  1.50000E+01
  2.08113E+01  1.98010E+01  1.96212E+01  3.04636E-01 -1.05757E+00  6.30299E-02  3.99332E-01 -5.51510E-05  1.62545E-04 -1.20346E-04  2.88353E-03 -3.33325E+00  2.38085E-04  2.22533E-05  5.81292E-06 -7.02107E-06  1.50000E+01
  2.07916E+01  1.98012E+01  1.96356E+01  3.01766E-01 -1.02781E+00  5.84984E-02  3.52353E-01 -5.79713E-05  1.57031E-04 -1.11759E-04  2.50223E-03 -3.23775E+00  7.67682E-05  2.13465E-05  5.95472E-06 -7.43718E-06  1.50000E+01
  2.03770E+01  1.97059E+01  2.01209E+01  1.51166E-01 -4.44568E-01 -3.09252E-02 -2.35067E-01  4.81631E-05 -8.18158E-05 -1.35500E-05  2.36942E-03 -1.48109E+00 -1.47487E-03  1.50427E-05  3.96731E-06  7.60560E-06  1.50000E+01
  2.03571E+01  1.97016E+01  2.01066E+01  1.43777E-01 -4.18304E-01 -2.84007E-02 -2.56173E-01  4.03648E-05 -6.43838E-05 -7.77824E-06  2.39045E-03 -1.38426E+00 -1.43785E-03  1.50081E-05  4.08902E-06  7.00152E-06  1.50000E+01
  2.05767E+01  1.98096E+01  1.99897E+01  3.04093E-01 -7.63753E-01  1.91043E-03 -1.39241E-01  7.77169E-05 -1.34905E-04  2.25430E-06  2.47860E-03 -2.32122E+00  7.48690E-05  8.23288E-06  4.05675E-06 -5.47471E-07  1.50000E+01
  2.05590E+01  1.98004E+01  1.99765E+01  2.91113E-01 -7.37200E-01  4.73608E-03 -1.27302E-01  7.51972E-05 -1.31960E-04  4.76515E-06  2.57298E-03 -2.24617E+00  9.34926E-05  8.24978E-06  3.97191E-06 -1.28077E-06  1.50000E+01
  2.05591E+01  1.98010E+01  2.00038E+01  2.91734E-01 -7.37789E-01 -1.08802E-03 -1.26197E-01  8.09274E-05 -1.44181E-04 -6.37486E-07  2.48114E-03 -2.23143E+00  2.75383E-05  8.00071E-06  3.90471E-06  2.01136E-07  1.50000E+01
  2.08153E+01  1.97843E+01  1.95964E+01  2.80076E-01 -1.05498E+00  6.43084E-02  4.65943E-01 -6.26096E-05  1.85726E-04 -1.48399E-04  3.09018E-03 -3.32704E+00  3.60416E-04  2.42955E-05  5.44876E-06 -7.91407E-06  1.50000E+01
  2.05468E+01  1.97653E+01  2.01751E+01  2.40377E-01 -6.92976E-01 -3.46068E-02 -1.38316E-01  1.64182E-05 -3.95561E-06  5.83446E-06  2.53355E-03 -2.08129E+00 -7.74325E-04  1.25338E-05  3.39614E-06  8.17183E-06  1.50000E+01
  2.05455E+01  1.97728E+01  2.01493E+01  2.51153E-01 -6.98529E-01 -3.05570E-02 -1.05928E-01  2.41366E-05 -2.20429E-05 -3.42995E-07  2.37923E-03 -2.07703E+00 -7.86080E-04  1.12539E-05  3.50710E-06  6.93270E-06  1.50000E+01
  2.03562E+01  1.97064E+01  2.00795E+01  1.50238E-01 -4.24544E-01 -2.20166E-02 -2.97791E-01  4.13444E-05 -7.02837E-05 -7.21901E-06  2.39265E-03 -1.40661E+00 -1.08397E-03  1.35173E-05  4.25116E-06  4.85695E-06  1.50000E+01
  2.04006E+01  1.96842E+01  2.02137E+01  1.20620E-01 -4.36901E-01 -4.35368E-02 -1.51213E-01  2.09281E-05 -3.97047E-06  9.52970E-06  2.51344E-03 -1.41164E+00 -2.39454E-03  1.84370E-05  2.33746E-06  1.20680E-05  1.50000E+01
  2.04206E+01  1.96863E+01  2.02278E+01  1.23762E-01 -4.62002E-01 -4.41017E-02 -1.64122E-01  1.81918E-05  2.36421E-06  1.25468E-05  2.51771E-03 -1.48358E+00 -2.34667E-03  1.84071E-05  2.09266E-06  1.24211E-05  1.50000E+01
  2.04191E+01  1.96965E+01  2.02025E+01  1.39184E-01 -4.75093E-01 -4.24045E-02 -1.54771E-01  2.65099E-05 -2.01517E-05  2.59977E-06  2.51663E-03 -1.53138E+00 -2.08854E-03  1.69139E-05  2.46383E-06  1.14092E-05  1.50000E+01
  2.01219E+01  1.96217E+01  2.01508E+01  1.37155E-02 -3.46970E-02 -2.46584E-02  1.07604E-01  1.97212E-05  8.02038E-05  1.80163E-05  2.16563E-03 -1.54788E-01 -8.45478E-03  3.34029E-05  5.23648E-06  2.92312E-06  1.50000E+01
  2.01016E+01  1.96166E+01  2.01626E+01 -2.24332E-04  4.42262E-02 -1.69437E-02  1.21633E-01  2.95745E-05  7.53861E-05  1.36221E-05 -4.48100E-03  7.79240E-02 -5.60945E-03  3.80385E-05  3.75635E-06  1.52913E-06  1.50000E+01