 TITLE="3D TRIANGULAR SURFACE DATA"
VARIABLES="X","Y","Z","U","V","W","P", "Fex", "Fey", "Fez","Finx","Finy","Finz","WSSx","WSSy","WSSz","AMForce"
 ZONE T="unstruc"N=        1757 E=        3355 F=FEPOINT  ET=TRIANGLE
  2.04304E+01  1.98153E+01  2.00976E+01  3.15804E-01 -8.33346E-01 -8.88856E-03  3.68922E-01 -1.21259E-04  2.19950E-04  5.11546E-05  4.55741E-03 -3.44873E+00 -9.65177E-04  1.31844E-05  7.40596E-06  3.96659E-06  1.50000E+01
  2.04492E+01  1.98272E+01  2.00979E+01  3.29723E-01 -8.62276E-01 -8.20002E-03  3.55707E-01 -6.31465E-05  1.10871E-04  2.54723E-05  3.06713E-03 -1.67361E+00  6.80726E-04  6.31464E-06  3.67908E-06  1.74386E-06  1.50000E+01
  2.04443E+01  1.98282E+01  2.00767E+01  3.31474E-01 -8.57183E-01 -6.46508E-03  3.70382E-01 -9.53970E-05  1.67119E-04  2.99791E-05  1.21363E-03 -2.45873E+00  1.04864E-03  8.78520E-06  5.25455E-06  2.12840E-06  1.50000E+01
  2.04292E+01  1.98065E+01  2.01287E+01  3.03553E-01 -8.26938E-01 -1.13923E-02  3.69460E-01 -9.56282E-05  1.76921E-04  5.37501E-05  1.99367E-03 -2.88609E+00 -4.29640E-04  1.23275E-05  6.54139E-06  4.23507E-06  1.50000E+01
  2.04468E+01  1.98204E+01  2.01189E+01  3.20540E-01 -8.55824E-01 -1.02985E-02  3.98507E-01 -8.67606E-05  1.54610E-04  4.36236E-05  1.74081E-03 -2.43791E+00 -1.28837E-03  9.86475E-06  5.51128E-06  3.15968E-06  1.50000E+01
  2.04628E+01  1.98331E+01  2.01101E+01  3.35861E-01 -8.81502E-01 -8.93863E-03  4.44162E-01 -8.22624E-05  1.42612E-04  3.67262E-05  1.94863E-03 -2.16060E+00  2.05902E-04  8.47070E-06  4.96425E-06  2.35750E-06  1.50000E+01
  2.04614E+01  1.98375E+01  2.00862E+01  3.41941E-01 -8.82117E-01 -7.11745E-03  3.93372E-01 -8.46706E-05  1.45907E-04  2.90170E-05  2.39575E-03 -2.17564E+00 -5.87383E-04  7.74864E-06  4.69158E-06  1.85992E-06  1.50000E+01
  2.04413E+01  1.98301E+01  2.00497E+01  3.34561E-01 -8.54541E-01 -4.36629E-03  3.95449E-01 -1.04052E-04  1.82379E-04  2.14667E-05  2.18828E-03 -2.66945E+00 -9.66454E-05  8.71473E-06  5.33525E-06  1.58885E-06  1.50000E+01
  2.04254E+01  1.98180E+01  2.00661E+01  3.20234E-01 -8.28972E-01 -6.30738E-03  3.67639E-01 -1.03238E-04  1.87433E-04  3.02678E-05  2.80679E-03 -2.91992E+00 -9.94499E-04  1.03318E-05  6.03036E-06  2.52708E-06  1.50000E+01
  2.04230E+01  1.98200E+01  2.00373E+01  3.23290E-01 -8.27205E-01 -3.66952E-03  3.63372E-01 -1.00788E-04  1.81640E-04  1.64736E-05  2.62260E-03 -2.73888E+00 -4.15082E-04  8.93139E-06  5.41116E-06  1.29529E-06  1.50000E+01
  2.04470E+01  1.98127E+01  2.01451E+01  3.09763E-01 -8.52026E-01 -1.21987E-02  4.33589E-01 -9.18472E-05  1.65164E-04  5.63313E-05  1.52243E-03 -2.61302E+00 -8.94213E-04  1.15140E-05  6.17924E-06  3.85134E-06  1.50000E+01
  2.04633E+01  1.98267E+01  2.01345E+01  3.26891E-01 -8.79114E-01 -1.09308E-02  4.39696E-01 -9.01729E-05  1.57988E-04  4.95412E-05  1.31689E-03 -2.48500E+00 -6.00318E-04  1.06333E-05  6.01186E-06  3.25750E-06  1.50000E+01
  2.03905E+01  1.97909E+01  2.00967E+01  2.87517E-01 -7.70954E-01 -9.76721E-03  3.40749E-01 -8.29920E-05  1.62357E-04  3.84185E-05  2.86789E-03 -2.73532E+00 -5.11835E-04  1.14162E-05  6.05464E-06  3.58588E-06  1.50000E+01
  2.03888E+01  1.97954E+01  2.00678E+01  2.94252E-01 -7.71837E-01 -7.13718E-03  3.08611E-01 -8.61004E-05  1.65953E-04  2.79081E-05  3.16755E-03 -2.69826E+00 -3.57654E-04  1.02221E-05  5.69064E-06  2.60523E-06  1.50000E+01
  2.03713E+01  1.97826E+01  2.00819E+01  2.78646E-01 -7.42503E-01 -8.85638E-03  2.91970E-01 -7.95138E-05  1.58635E-04  3.25606E-05  3.17053E-03 -2.53902E+00 -4.78215E-04  1.04683E-05  5.52432E-06  3.18116E-06  1.50000E+01
  2.04103E+01  1.97993E+01  2.01120E+01  2.96290E-01 -7.99826E-01 -1.05763E-02  3.77126E-01 -9.45625E-05  1.79338E-04  4.84915E-05  3.10433E-03 -3.01189E+00 -5.74430E-04  1.24519E-05  6.60389E-06  4.15137E-06  1.50000E+01
  2.03923E+01  1.97847E+01  2.01251E+01  2.78192E-01 -7.68932E-01 -1.21033E-02  3.32319E-01 -7.82650E-05  1.55112E-04  4.76176E-05  2.61643E-03 -2.65743E+00 -6.35636E-04  1.22589E-05  6.13205E-06  4.43133E-06  1.50000E+01
  2.04115E+01  1.97917E+01  2.01406E+01  2.85287E-01 -7.96628E-01 -1.27138E-02  3.76543E-01 -8.25068E-05  1.59003E-04  5.38039E-05  2.25877E-03 -2.71440E+00 -4.80135E-04  1.27767E-05  6.45232E-06  4.59219E-06  1.50000E+01
  2.04084E+01  1.98048E+01  2.00823E+01  3.04388E-01 -8.00997E-01 -8.06999E-03  3.19632E-01 -9.69940E-05  1.82807E-04  3.66968E-05  3.14172E-03 -3.02854E+00 -3.59969E-04  1.16200E-05  6.49891E-06  3.20632E-06  1.50000E+01
  2.04061E+01  1.98080E+01  2.00528E+01  3.09197E-01 -8.00192E-01 -5.42279E-03  3.43963E-01 -9.64862E-05  1.78753E-04  2.27926E-05  2.84321E-03 -2.77375E+00 -4.14397E-04  9.58807E-06  5.59766E-06  1.85028E-06  1.50000E+01
  2.04777E+01  1.98457E+01  2.00983E+01  3.50774E-01 -9.05504E-01 -7.75366E-03  4.44562E-01 -9.92468E-05  1.68561E-04  3.80380E-05  1.82719E-03 -2.44833E+00 -3.02082E-04  9.06403E-06  5.49520E-06  2.25458E-06  1.50000E+01
  2.04762E+01  1.98496E+01  2.00728E+01  3.56038E-01 -9.05464E-01 -5.79944E-03  3.98571E-01 -1.03234E-04  1.74514E-04  2.89882E-05  2.22094E-03 -2.53807E+00 -4.30145E-04  8.74262E-06  5.44776E-06  1.85487E-06  1.50000E+01
  2.04791E+01  1.98404E+01  2.01235E+01  3.43442E-01 -9.04752E-01 -9.57661E-03  4.57878E-01 -9.70110E-05  1.65891E-04  4.70521E-05  1.87379E-03 -2.51416E+00 -9.20549E-05  9.99617E-06  5.87823E-06  2.80142E-06  1.50000E+01
  2.04590E+01  1.98401E+01  2.00611E+01  3.45475E-01 -8.80620E-01 -4.99165E-03  3.79464E-01 -1.03987E-04  1.77717E-04  2.49000E-05  1.28870E-03 -2.52747E+00  1.22670E-04  8.64481E-06  5.37337E-06  1.68367E-06  1.50000E+01
  2.04747E+01  1.98520E+01  2.00464E+01  3.59472E-01 -9.04898E-01 -3.59402E-03  4.24228E-01 -1.17084E-04  1.95521E-04  2.06699E-05  2.03666E-03 -2.67482E+00 -2.48447E-06  8.58276E-06  5.48278E-06  1.34804E-06  1.50000E+01
  2.04048E+01  1.98097E+01  2.00240E+01  3.11881E-01 -7.99536E-01 -2.63256E-03  3.28965E-01 -9.92169E-05  1.81399E-04  1.08904E-05  3.07933E-03 -2.66582E+00 -2.90535E-04  8.46449E-06  5.08225E-06  8.77835E-07  1.50000E+01
  2.04397E+01  1.98315E+01  2.00218E+01  3.36630E-01 -8.53272E-01 -1.93356E-03  4.05616E-01 -1.07139E-04  1.87196E-04  9.89089E-06  2.67414E-03 -2.70905E+00 -1.20844E-04  8.25392E-06  5.15567E-06  8.23430E-07  1.50000E+01
  2.04220E+01  1.98208E+01  2.00089E+01  3.24728E-01 -8.26335E-01 -9.57248E-04  3.57117E-01 -9.91677E-05  1.78271E-04  4.08418E-06  3.01139E-03 -2.68398E+00 -1.82370E-04  8.36561E-06  5.14310E-06  3.64796E-07  1.50000E+01
  2.03943E+01  1.97770E+01  2.01526E+01  2.66765E-01 -7.66151E-01 -1.40343E-02  3.54518E-01 -7.36313E-05  1.47224E-04  5.49109E-05  2.40133E-03 -2.54344E+00 -6.44052E-04  1.30255E-05  6.19563E-06  4.95852E-06  1.50000E+01
  2.04134E+01  1.97832E+01  2.01677E+01  2.73004E-01 -7.93609E-01 -1.44487E-02  3.92198E-01 -8.32827E-05  1.60144E-04  6.49133E-05  2.23492E-03 -2.57959E+00 -6.31460E-04  1.35669E-05  6.49644E-06  5.15325E-06  1.50000E+01
  2.07624E+01  1.99509E+01  1.96689E+01  4.74524E-01 -1.31252E+00  1.91551E-02  6.20051E-01 -2.05895E-04  3.20434E-04 -2.05027E-04  1.91260E-03 -4.13090E+00 -3.54739E-04  2.09595E-05  1.67021E-05  1.62041E-06  1.50000E+01
  2.07438E+01  1.99470E+01  1.96842E+01  4.67665E-01 -1.28474E+00  1.67852E-02  6.47967E-01 -2.18145E-04  3.27819E-04 -2.01091E-04  1.77295E-03 -4.04000E+00 -3.11309E-04  2.02536E-05  1.59232E-05  7.28765E-07  1.50000E+01
  2.07575E+01  1.99645E+01  1.96956E+01  4.91253E-01 -1.30639E+00  1.77370E-02  6.28626E-01 -2.15135E-04  3.32801E-04 -1.93344E-04  1.91171E-03 -4.10781E+00 -3.23315E-04  2.10857E-05  1.66117E-05  1.43693E-06  1.50000E+01
  2.07391E+01  1.99600E+01  1.97111E+01  4.83736E-01 -1.27925E+00  1.55677E-02  6.36668E-01 -2.21943E-04  3.33407E-04 -1.85158E-04  1.79201E-03 -4.01976E+00 -2.78553E-04  2.08121E-05  1.61953E-05  6.48577E-07  1.50000E+01
  2.07529E+01  1.99771E+01  1.97229E+01  5.06659E-01 -1.30076E+00  1.62274E-02  6.19149E-01 -2.15079E-04  3.33424E-04 -1.74363E-04  1.90300E-03 -4.08679E+00 -2.97856E-04  2.17598E-05  1.70013E-05  1.47417E-06  1.50000E+01
  2.08201E+01  1.99585E+01  1.96242E+01  4.92669E-01 -1.40030E+00  2.99788E-02  3.07610E-01 -1.24884E-04  2.48539E-04 -1.76888E-04  2.72760E-03 -4.41727E+00  7.80761E-05  2.66351E-05  2.07054E-05  4.37150E-06  1.50000E+01
  2.08006E+01  1.99568E+01  1.96388E+01  4.87244E-01 -1.37036E+00  2.57713E-02  4.87254E-01 -1.57517E-04  2.80439E-04 -1.93354E-04  2.45123E-03 -4.31983E+00 -1.56237E-04  2.27928E-05  1.84019E-05  3.67042E-06  1.50000E+01
  2.08141E+01  1.99742E+01  1.96500E+01  5.11847E-01 -1.39212E+00  2.77328E-02  3.50920E-01 -1.24186E-04  2.43761E-04 -1.58137E-04  2.65063E-03 -4.38966E+00 -1.49547E-05  2.61967E-05  2.02771E-05  4.06332E-06  1.50000E+01
  2.04807E+01  1.98337E+01  2.01489E+01  3.34150E-01 -9.03727E-01 -1.13745E-02  4.59192E-01 -9.86318E-05  1.70136E-04  5.81981E-05  1.90113E-03 -2.63434E+00 -4.92170E-04  1.16782E-05  6.68810E-06  3.42646E-06  1.50000E+01
  2.08086E+01  1.99888E+01  1.96765E+01  5.29630E-01 -1.38447E+00  2.53839E-02  4.76887E-01 -1.36746E-04  2.59347E-04 -1.54102E-04  2.60526E-03 -4.36385E+00 -7.09026E-05  2.51576E-05  1.91959E-05  3.41436E-06  1.50000E+01
  2.08278E+01  1.99911E+01  1.96613E+01  5.36136E-01 -1.41358E+00  2.94768E-02  2.82228E-01 -8.71982E-05  2.04774E-04 -1.21447E-04  2.80141E-03 -4.45894E+00  8.08558E-05  2.86005E-05  2.17410E-05  4.95919E-06  1.50000E+01
  2.04908E+01  1.98639E+01  2.00322E+01  3.73256E-01 -9.29409E-01 -2.26162E-03  4.45708E-01 -1.21314E-04  2.00520E-04  1.44517E-05  2.49708E-03 -2.77971E+00  1.81745E-05  8.54280E-06  5.59746E-06  8.49161E-07  1.50000E+01
  2.04737E+01  1.98534E+01  2.00194E+01  3.61486E-01 -9.04400E-01 -1.31805E-03  4.54005E-01 -1.24119E-04  2.06786E-04  9.15271E-06  2.56496E-03 -2.74581E+00  9.70980E-05  8.12306E-06  5.27340E-06  6.71815E-07  1.50000E+01
  2.04302E+01  1.97981E+01  2.01562E+01  2.91748E-01 -8.23332E-01 -1.33055E-02  4.23656E-01 -9.00042E-05  1.67213E-04  6.22344E-05  1.88390E-03 -2.66091E+00 -5.67026E-04  1.27602E-05  6.47632E-06  4.58584E-06  1.50000E+01
  2.04324E+01  1.97893E+01  2.01826E+01  2.79043E-01 -8.20690E-01 -1.47985E-02  4.13329E-01 -9.66533E-05  1.77762E-04  7.70896E-05  2.38963E-03 -2.59745E+00 -7.31563E-04  1.37853E-05  6.69983E-06  5.11754E-06  1.50000E+01
  2.04487E+01  1.98044E+01  2.01713E+01  2.98053E-01 -8.49563E-01 -1.37805E-02  4.24776E-01 -9.93008E-05  1.77842E-04  7.15494E-05  2.12170E-03 -2.62861E+00 -7.66304E-04  1.29534E-05  6.67993E-06  4.50578E-06  1.50000E+01
  2.04042E+01  1.98100E+01  1.99956E+01  3.12463E-01 -7.98935E-01  2.43386E-04  3.66799E-01 -9.69588E-05  1.77055E-04 -1.63553E-06  3.20152E-03 -2.60653E+00 -1.18314E-04  8.09217E-06  4.89895E-06 -1.24181E-07  1.50000E+01
  2.04392E+01  1.98316E+01  1.99938E+01  3.37025E-01 -8.52522E-01  6.33890E-04  4.08789E-01 -1.06754E-04  1.86692E-04 -2.62977E-06  3.05205E-03 -2.70273E+00 -7.95689E-06  8.07407E-06  5.06634E-06 -2.33866E-07  1.50000E+01
  2.04217E+01  1.98204E+01  1.99808E+01  3.24179E-01 -8.25603E-01  1.79260E-03  3.57959E-01 -9.82511E-05  1.76668E-04 -7.91022E-06  3.14765E-03 -2.64661E+00 -8.45717E-06  8.27906E-06  5.07741E-06 -5.93054E-07  1.50000E+01
  2.07628E+01  2.00048E+01  1.97631E+01  5.42773E-01 -1.31704E+00  1.50581E-02  6.17396E-01 -2.00202E-04  3.26009E-04 -1.40729E-04  2.02081E-03 -4.13481E+00 -2.60635E-04  2.37478E-05  1.81326E-05  1.85667E-06  1.50000E+01
  2.07807E+01  2.00101E+01  1.97473E+01  5.52026E-01 -1.34365E+00  1.75656E-02  5.03005E-01 -1.72527E-04  2.98020E-04 -1.35661E-04  2.22324E-03 -4.22504E+00 -2.32066E-04  2.68042E-05  2.02667E-05  2.53494E-06  1.50000E+01
  2.07668E+01  1.99938E+01  1.97350E+01  5.29432E-01 -1.32223E+00  1.69119E-02  6.24974E-01 -2.00742E-04  3.25416E-04 -1.59297E-04  2.04576E-03 -4.15475E+00 -2.79601E-04  2.34533E-05  1.81722E-05  2.11387E-06  1.50000E+01
  2.04947E+01  1.98540E+01  2.01114E+01  3.59669E-01 -9.29736E-01 -8.34363E-03  4.77120E-01 -1.10046E-04  1.84014E-04  4.62301E-05  2.21448E-03 -2.66515E+00 -2.58100E-04  1.00596E-05  6.13655E-06  2.50483E-06  1.50000E+01
  2.01391E+01  1.96294E+01  2.01900E+01  5.87744E-02 -2.81664E-01 -1.19069E-02  1.82921E-01  2.58318E-06  9.34273E-05  4.00676E-05  4.23908E-03 -8.94686E-01 -4.73915E-03  3.60740E-05  1.28610E-05  4.17258E-06  1.50000E+01
  2.01209E+01  1.96171E+01  2.02011E+01  3.40359E-02 -2.27867E-01 -7.02348E-03  7.60461E-02  3.33874E-05  5.04236E-05  1.82361E-05  2.99427E-03 -7.25989E-01 -4.66642E-03  4.66067E-05  1.60933E-05  3.46355E-06  1.50000E+01
  2.01415E+01  1.96190E+01  2.02140E+01  3.66181E-02 -2.60305E-01 -6.98289E-03  7.97879E-02  3.63076E-05  5.01571E-05  2.00092E-05  2.97102E-03 -8.28545E-01 -4.24153E-03  4.96415E-05  1.75395E-05  4.60371E-06  1.50000E+01
  2.08174E+01  2.00186E+01  1.97157E+01  5.69249E-01 -1.39865E+00  2.39752E-02  2.87519E-01 -1.04255E-04  2.41241E-04 -1.16014E-04  2.76062E-03 -4.40902E+00 -3.95145E-05  3.41618E-05  2.58708E-05  6.13786E-06  1.50000E+01
  2.08362E+01  2.00216E+01  1.97001E+01  5.76841E-01 -1.42684E+00  2.78111E-02  2.73541E-01 -6.56816E-05  1.50868E-04 -7.59196E-05  3.26044E-02 -2.29932E+00  4.97365E-03  1.92382E-05  1.47173E-05  4.11351E-06  1.50000E+01
  2.08223E+01  2.00054E+01  1.96882E+01  5.53432E-01 -1.40582E+00  2.67400E-02  3.49694E-01 -1.21321E-04  2.60508E-04 -1.41387E-04  2.80824E-03 -4.43317E+00  3.35461E-05  3.11700E-05  2.38088E-05  5.62610E-06  1.50000E+01
  2.07712E+01  1.99817E+01  1.97073E+01  5.14681E-01 -1.32797E+00  1.87250E-02  5.89100E-01 -2.02920E-04  3.27634E-04 -1.79610E-04  2.06523E-03 -4.17605E+00 -2.93175E-04  2.22539E-05  1.74412E-05  2.17633E-06  1.50000E+01
  2.07850E+01  1.99984E+01  1.97193E+01  5.37924E-01 -1.34949E+00  1.96872E-02  5.94595E-01 -1.85494E-04  3.14230E-04 -1.62207E-04  2.27914E-03 -4.24603E+00 -2.21631E-04  2.47158E-05  1.90472E-05  2.82057E-06  1.50000E+01
  2.04042E+01  1.98089E+01  1.99677E+01  3.10875E-01 -7.98136E-01  3.12497E-03  3.40150E-01 -9.46689E-05  1.73723E-04 -1.34393E-05  3.10855E-03 -2.56825E+00  7.03781E-05  8.33580E-06  4.96919E-06 -1.05596E-06  1.50000E+01
  2.03874E+01  1.97982E+01  2.00390E+01  2.98402E-01 -7.71925E-01 -4.33027E-03  2.89187E-01 -9.21905E-05  1.73576E-04  1.68229E-05  3.19957E-03 -2.61550E+00 -3.23213E-04  8.65286E-06  5.01152E-06  1.48215E-06  1.50000E+01
  2.03866E+01  1.97994E+01  2.00104E+01  3.00234E-01 -7.71688E-01 -1.38020E-03  2.74414E-01 -9.46023E-05  1.77310E-04  4.80354E-06  3.27182E-03 -2.55430E+00 -1.96373E-04  8.08712E-06  4.78192E-06  4.05274E-07  1.50000E+01
  2.08067E+01  1.99409E+01  1.96133E+01  4.67662E-01 -1.37838E+00  2.75966E-02  5.05524E-01 -1.53503E-04  2.80472E-04 -2.10318E-04  2.55107E-03 -4.34720E+00 -8.62645E-05  2.31075E-05  1.87043E-05  3.85887E-06  1.50000E+01
  2.07349E+01  1.99719E+01  1.97386E+01  4.98478E-01 -1.27423E+00  1.42485E-02  6.49242E-01 -2.20798E-04  3.34574E-04 -1.65772E-04  1.79302E-03 -3.99916E+00 -2.50733E-04  2.11098E-05  1.63212E-05  6.92111E-07  1.50000E+01
  2.07488E+01  1.99886E+01  1.97507E+01  5.20694E-01 -1.29564E+00  1.46457E-02  6.30743E-01 -2.13267E-04  3.32633E-04 -1.54421E-04  1.87315E-03 -4.06616E+00 -2.73457E-04  2.20213E-05  1.69991E-05  1.29274E-06  1.50000E+01
  2.03699E+01  1.97863E+01  2.00534E+01  2.84291E-01 -7.43461E-01 -6.04885E-03  2.24810E-01 -7.96936E-05  1.56683E-04  2.09726E-05  3.37887E-03 -2.51588E+00 -3.49021E-04  9.39955E-06  5.23176E-06  1.91795E-06  1.50000E+01
  2.03513E+01  1.97771E+01  2.00394E+01  2.74112E-01 -7.15179E-01 -4.78787E-03  2.08776E-01 -7.74778E-05  1.55238E-04  1.54895E-05  3.51836E-03 -2.37451E+00 -2.99070E-04  8.96455E-06  4.97920E-06  1.37856E-06  1.50000E+01
  2.03524E+01  1.97741E+01  2.00674E+01  2.69581E-01 -7.14223E-01 -7.80005E-03  2.55576E-01 -7.68314E-05  1.56323E-04  2.68277E-05  3.47169E-03 -2.39040E+00 -4.56331E-04  9.87953E-06  5.22951E-06  2.61718E-06  1.50000E+01
  2.04932E+01  1.98586E+01  2.00854E+01  3.65974E-01 -9.29869E-01 -6.48468E-03  4.50671E-01 -1.15509E-04  1.91985E-04  3.70505E-05  2.25936E-03 -2.66925E+00 -2.76210E-04  9.36366E-06  5.86867E-06  2.02105E-06  1.50000E+01
  2.04918E+01  1.98619E+01  2.00590E+01  3.70483E-01 -9.29717E-01 -4.45605E-03  4.56273E-01 -1.17952E-04  1.95478E-04  2.60816E-05  2.47947E-03 -2.72412E+00 -2.41470E-04  8.84202E-06  5.67800E-06  1.52775E-06  1.50000E+01
  2.05072E+01  1.98756E+01  2.00180E+01  3.86638E-01 -9.53738E-01 -1.03524E-03  4.96056E-01 -1.32192E-04  2.14354E-04  8.48546E-06  2.60876E-03 -2.86784E+00  4.01328E-05  8.54341E-06  5.71309E-06  5.01800E-07  1.50000E+01
  2.04903E+01  1.98647E+01  2.00050E+01  3.74361E-01 -9.29078E-01 -2.82388E-05  4.44987E-01 -1.22676E-04  2.02607E-04  2.07467E-06  2.69480E-03 -2.81474E+00  1.34796E-04  8.34038E-06  5.51537E-06  9.11609E-08  1.50000E+01
  2.07897E+01  1.99856E+01  1.96918E+01  5.22404E-01 -1.35589E+00  2.17800E-02  5.91989E-01 -1.80219E-04  3.08230E-04 -1.76912E-04  2.31729E-03 -4.26918E+00 -2.14437E-04  2.41046E-05  1.87003E-05  2.84039E-06  1.50000E+01
  2.07949E+01  1.99717E+01  1.96650E+01  5.05503E-01 -1.36286E+00  2.38192E-02  5.26854E-01 -1.66106E-04  2.90197E-04 -1.83020E-04  2.38323E-03 -4.29434E+00 -1.95866E-04  2.38389E-05  1.86072E-05  2.97885E-06  1.50000E+01
  2.07254E+01  1.99425E+01  1.96995E+01  4.60673E-01 -1.25765E+00  1.49704E-02  6.65956E-01 -2.23682E-04  3.28016E-04 -1.92573E-04  1.73442E-03 -3.95237E+00 -2.22753E-04  1.94766E-05  1.51726E-05  1.62000E-07  1.50000E+01
  2.03750E+01  1.97704E+01  2.01377E+01  2.60203E-01 -7.38266E-01 -1.35537E-02  3.17539E-01 -7.60607E-05  1.54454E-04  5.26995E-05  2.78333E-03 -2.46452E+00 -7.35444E-04  1.27382E-05  6.03101E-06  4.80673E-06  1.50000E+01
  2.03579E+01  1.97562E+01  2.01500E+01  2.41835E-01 -7.06995E-01 -1.49003E-02  2.82760E-01 -7.29396E-05  1.52914E-04  5.72953E-05  2.88890E-03 -2.32786E+00 -9.11477E-04  1.35876E-05  6.05390E-06  5.33023E-06  1.50000E+01
  2.03773E+01  1.97623E+01  2.01646E+01  2.47885E-01 -7.35134E-01 -1.52652E-02  3.23660E-01 -6.94315E-05  1.44264E-04  5.88000E-05  2.66976E-03 -2.41135E+00 -8.43074E-04  1.39450E-05  6.23350E-06  5.55737E-06  1.50000E+01
  2.08035E+01  2.00023E+01  1.97036E+01  5.45993E-01 -1.37738E+00  2.29762E-02  4.98704E-01 -1.55222E-04  2.88610E-04 -1.54608E-04  2.55958E-03 -4.33935E+00 -1.04145E-04  2.59509E-05  1.97093E-05  3.45831E-06  1.50000E+01
  2.07489E+01  1.99330E+01  1.96578E+01  4.50321E-01 -1.29071E+00  1.78825E-02  6.38473E-01 -2.17645E-04  3.25684E-04 -2.19845E-04  1.77561E-03 -4.06229E+00 -3.40254E-04  2.00203E-05  1.59404E-05  9.04116E-07  1.50000E+01
  2.07302E+01  1.99291E+01  1.96730E+01  4.43934E-01 -1.26300E+00  1.59101E-02  6.37678E-01 -2.23575E-04  3.26177E-04 -2.11084E-04  1.70173E-03 -3.97194E+00 -2.51477E-04  1.95795E-05  1.53365E-05  1.25907E-07  1.50000E+01
  2.04512E+01  1.97952E+01  2.01971E+01  2.84972E-01 -8.47571E-01 -1.50108E-02  4.49841E-01 -1.10325E-04  1.95092E-04  9.04552E-05  2.67675E-03 -2.63781E+00 -8.24567E-04  1.42693E-05  7.04731E-06  5.17356E-06  1.50000E+01
  2.04672E+01  1.98107E+01  2.01859E+01  3.04406E-01 -8.75766E-01 -1.40284E-02  4.73314E-01 -1.10992E-04  1.92310E-04  8.30075E-05  2.52704E-03 -2.67383E+00 -7.74141E-04  1.34145E-05  7.01886E-06  4.57034E-06  1.50000E+01
  2.04351E+01  1.97794E+01  2.02084E+01  2.64851E-01 -8.18195E-01 -1.58539E-02  4.05584E-01 -1.05198E-04  1.91198E-04  9.48387E-05  2.64560E-03 -2.58466E+00 -8.77768E-04  1.51337E-05  7.00928E-06  5.82557E-06  1.50000E+01
  2.04392E+01  1.98304E+01  1.99661E+01  3.35420E-01 -8.51767E-01  3.22121E-03  3.95752E-01 -1.05393E-04  1.85032E-04 -1.47723E-05  3.11927E-03 -2.68900E+00  1.25018E-04  8.31797E-06  5.13610E-06 -1.15476E-06  1.50000E+01
  2.07813E+01  1.99542E+01  1.96538E+01  4.81116E-01 -1.34107E+00  2.21461E-02  5.84447E-01 -1.86864E-04  3.06504E-04 -2.03911E-04  2.15386E-03 -4.22478E+00 -3.06355E-04  2.17231E-05  1.75052E-05  2.65232E-06  1.50000E+01
  2.07871E+01  1.99390E+01  1.96279E+01  4.62378E-01 -1.34839E+00  2.37006E-02  5.62012E-01 -1.81750E-04  3.02678E-04 -2.19387E-04  2.22581E-03 -4.24969E+00 -2.85344E-04  2.15124E-05  1.76594E-05  3.03240E-06  1.50000E+01
  2.07679E+01  1.99363E+01  1.96427E+01  4.56523E-01 -1.31916E+00  2.04613E-02  6.04310E-01 -2.04172E-04  3.17993E-04 -2.23246E-04  1.96051E-03 -4.15526E+00 -3.61296E-04  2.07017E-05  1.66613E-05  1.76195E-06  1.50000E+01
  2.07117E+01  1.99247E+01  1.96882E+01  4.37458E-01 -1.23590E+00  1.44530E-02  6.44361E-01 -2.22802E-04  3.21190E-04 -1.99097E-04  1.71500E-03 -3.88476E+00 -1.40231E-04  1.90649E-05  1.46187E-05 -5.48021E-07  1.50000E+01
  2.05121E+01  1.98623E+01  2.01250E+01  3.68515E-01 -9.54446E-01 -8.85380E-03  4.97499E-01 -1.19219E-04  1.96788E-04  5.48130E-05  2.57019E-03 -2.81013E+00 -2.76287E-04  1.10694E-05  6.85156E-06  2.56486E-06  1.50000E+01
  2.04965E+01  1.98481E+01  2.01372E+01  3.51542E-01 -9.29392E-01 -1.00765E-02  4.71174E-01 -1.07519E-04  1.81168E-04  5.62995E-05  2.39506E-03 -2.71021E+00 -2.42797E-04  1.11799E-05  6.67007E-06  2.94253E-06  1.50000E+01
  2.03730E+01  1.97773E+01  2.01101E+01  2.70558E-01 -7.40781E-01 -1.13897E-02  2.93871E-01 -7.80373E-05  1.57163E-04  4.29478E-05  2.99479E-03 -2.51916E+00 -6.01548E-04  1.15174E-05  5.76844E-06  3.97406E-06  1.50000E+01
  2.03539E+01  1.97696E+01  2.00954E+01  2.62595E-01 -7.12550E-01 -1.05521E-02  2.27517E-01 -7.92177E-05  1.61692E-04  3.86176E-05  3.27871E-03 -2.38728E+00 -6.03929E-04  1.11604E-05  5.61802E-06  3.56578E-06  1.50000E+01
  2.01232E+01  1.96065E+01  2.02248E+01  1.05186E-02 -2.02005E-01  0.00000E+00 -8.20472E-02  3.41818E-05 -5.89849E-06 -5.28190E-06  4.10483E+00  1.11931E+01 -1.91363E+01  2.82263E-05  9.33991E-06  2.50138E-06  1.50000E+01
  2.08473E+01  1.99927E+01  1.96465E+01  5.41760E-01 -1.44309E+00  3.39836E-02 -5.82656E-02 -2.42100E-05  7.73626E-05 -4.46631E-05  3.15560E-02 -2.32746E+00  6.50696E-03  1.51510E-05  1.14066E-05  2.82308E-06  1.50000E+01
  2.08337E+01  1.99758E+01  1.96352E+01  5.17376E-01 -1.42190E+00  3.21364E-02 -4.46197E-02 -8.38139E-05  2.03574E-04 -1.31124E-04  2.83447E-03 -4.48660E+00  1.76507E-04  3.16162E-05  2.43633E-05  5.91199E-06  1.50000E+01
  2.07355E+01  1.99147E+01  1.96469E+01  4.25967E-01 -1.26878E+00  1.67028E-02  6.65464E-01 -2.27941E-04  3.29948E-04 -2.33732E-04  1.69594E-03 -3.99360E+00 -2.75936E-04  2.00957E-05  1.56829E-05 -2.35347E-08  1.50000E+01
  2.07167E+01  1.99108E+01  1.96620E+01  4.20047E-01 -1.24107E+00  1.51296E-02  6.70759E-01 -2.28529E-04  3.26288E-04 -2.22073E-04  1.67489E-03 -3.90366E+00 -1.59990E-04  1.97079E-05  1.50411E-05 -8.00686E-07  1.50000E+01
  2.03864E+01  1.97990E+01  1.99823E+01  2.99790E-01 -7.71121E-01  1.63255E-03  2.75317E-01 -9.14313E-05  1.71972E-04 -7.20370E-06  3.20542E-03 -2.50872E+00 -7.93890E-06  7.93898E-06  4.68657E-06 -6.61316E-07  1.50000E+01
  2.04986E+01  1.98409E+01  2.01630E+01  3.41617E-01 -9.29007E-01 -1.16783E-02  4.89949E-01 -1.11759E-04  1.88206E-04  6.94640E-05  2.35753E-03 -2.76227E+00 -4.57955E-04  1.24184E-05  7.20819E-06  3.49038E-06  1.50000E+01
  2.03967E+01  1.97682E+01  2.01793E+01  2.53699E-01 -7.63045E-01 -1.55361E-02  3.65763E-01 -7.77149E-05  1.54991E-04  6.80783E-05  2.52184E-03 -2.47704E+00 -7.93762E-04  1.44447E-05  6.51670E-06  5.72073E-06  1.50000E+01
  2.04160E+01  1.97739E+01  2.01939E+01  2.59340E-01 -7.90706E-01 -1.57415E-02  4.15297E-01 -9.18977E-05  1.74088E-04  8.12755E-05  2.51018E-03 -2.53016E+00 -8.24706E-04  1.48283E-05  6.71922E-06  5.89560E-06  1.50000E+01
  2.01571E+01  1.96419E+01  2.01787E+01  8.20240E-02 -3.29673E-01 -1.47653E-02  1.74639E-01 -9.97408E-06  9.91685E-05  4.26462E-05  4.20455E-03 -1.04592E+00 -3.80609E-03  2.87785E-05  1.04954E-05  4.57253E-06  1.50000E+01
  2.01368E+01  1.96386E+01  2.01657E+01  7.84525E-02 -2.99139E-01 -1.43922E-02  1.54434E-01 -3.90636E-06  9.28737E-05  3.58151E-05  4.71325E-03 -9.45776E-01 -4.07892E-03  3.05660E-05  1.12717E-05  3.76840E-06  1.50000E+01
  2.07933E+01  1.99228E+01  1.96026E+01  4.42386E-01 -1.35621E+00  2.51048E-02  5.57185E-01 -1.76313E-04  3.04038E-04 -2.38623E-04  2.33249E-03 -4.27668E+00 -2.37568E-04  2.34399E-05  1.88840E-05  2.94548E-06  1.50000E+01
  2.03328E+01  1.97677E+01  2.00256E+01  2.63561E-01 -6.86661E-01 -3.35799E-03  1.92498E-01 -6.55760E-05  1.38041E-04  9.17050E-06  3.51651E-03 -2.25117E+00 -2.06018E-04  8.99617E-06  4.94783E-06  8.43555E-07  1.50000E+01
  2.03336E+01  1.97655E+01  2.00533E+01  2.60164E-01 -6.85827E-01 -6.57222E-03  2.27388E-01 -7.07526E-05  1.48208E-04  2.01831E-05  3.56020E-03 -2.26233E+00 -4.09554E-04  9.54731E-06  5.07245E-06  1.88510E-06  1.50000E+01
  2.05104E+01  1.98675E+01  2.00987E+01  3.75674E-01 -9.54391E-01 -7.10753E-03  4.57031E-01 -1.22676E-04  2.01397E-04  4.42561E-05  2.52464E-03 -2.79870E+00 -2.50316E-04  1.01740E-05  6.41923E-06  2.22263E-06  1.50000E+01
  2.05090E+01  1.98715E+01  2.00721E+01  3.81077E-01 -9.54243E-01 -5.21096E-03  4.89999E-01 -1.26206E-04  2.06347E-04  3.31628E-05  2.54386E-03 -2.81090E+00 -2.00263E-04  9.44413E-06  6.09577E-06  1.73299E-06  1.50000E+01
  2.03605E+01  1.97475E+01  2.01765E+01  2.28433E-01 -7.03202E-01 -1.63191E-02  3.21021E-01 -6.56539E-05  1.42236E-04  6.27321E-05  2.68372E-03 -2.29457E+00 -1.00716E-03  1.49394E-05  6.21884E-06  6.24109E-06  1.50000E+01
  2.03436E+01  1.97325E+01  2.01883E+01  2.08363E-01 -6.70204E-01 -1.71230E-02  3.28066E-01 -6.45082E-05  1.44514E-04  6.85779E-05  2.66925E-03 -2.17610E+00 -1.17420E-03  1.60605E-05  6.27966E-06  6.77657E-06  1.50000E+01
  2.03633E+01  1.97375E+01  2.02024E+01  2.13227E-01 -6.98829E-01 -1.71548E-02  3.42318E-01 -6.71132E-05  1.45841E-04  7.37819E-05  2.53728E-03 -2.26402E+00 -1.11090E-03  1.65819E-05  6.58084E-06  6.91177E-06  1.50000E+01
  2.06981E+01  1.99065E+01  1.96771E+01  4.14058E-01 -1.21389E+00  1.40163E-02  6.60271E-01 -2.24719E-04  3.20178E-04 -2.09175E-04  1.72242E-03 -3.81651E+00 -4.04830E-05  1.91066E-05  1.44129E-05 -1.15725E-06  1.50000E+01
  2.03690E+01  1.97884E+01  2.00251E+01  2.87463E-01 -7.43790E-01 -3.05500E-03  1.61159E-01 -9.06210E-05  1.73838E-04  1.09762E-05  3.42611E-03 -2.47603E+00 -2.35644E-04  8.58212E-06  4.93405E-06  9.14700E-07  1.50000E+01
  2.03685E+01  1.97889E+01  1.99969E+01  2.88238E-01 -7.43587E-01  5.17629E-05  1.54964E-01 -9.23750E-05  1.76586E-04 -1.11539E-06  3.32558E-03 -2.43781E+00 -6.91320E-05  8.26949E-06  4.80190E-06 -1.28102E-07  1.50000E+01
  2.05079E+01  1.98742E+01  2.00452E+01  3.84734E-01 -9.54010E-01 -3.17196E-03  4.85052E-01 -1.30188E-04  2.11773E-04  2.12843E-05  2.62872E-03 -2.83908E+00 -1.16131E-04  8.94097E-06  5.89118E-06  1.21500E-06  1.50000E+01
  2.07737E+01  1.99208E+01  1.96172E+01  4.37292E-01 -1.32628E+00  2.16262E-02  6.09909E-01 -2.01833E-04  3.19898E-04 -2.43564E-04  2.01829E-03 -4.17954E+00 -3.54664E-04  2.22678E-05  1.77745E-05  1.71360E-06  1.50000E+01
  2.07545E+01  1.99180E+01  1.96320E+01  4.31757E-01 -1.29715E+00  1.88400E-02  6.30513E-01 -2.19627E-04  3.28110E-04 -2.41692E-04  1.81530E-03 -4.08582E+00 -3.51428E-04  2.08882E-05  1.63976E-05  5.88771E-07  1.50000E+01
  2.03557E+01  1.97636E+01  2.01230E+01  2.53286E-01 -7.10138E-01 -1.29501E-02  2.53277E-01 -7.66351E-05  1.58374E-04  4.89293E-05  3.08726E-03 -2.36264E+00 -7.59726E-04  1.23834E-05  5.89680E-06  4.42827E-06  1.50000E+01
  2.03365E+01  1.97565E+01  2.01085E+01  2.46021E-01 -6.81837E-01 -1.21982E-02  2.36772E-01 -7.42070E-05  1.57032E-04  4.29902E-05  3.25887E-03 -2.25284E+00 -7.78873E-04  1.19633E-05  5.71243E-06  4.01710E-06  1.50000E+01
  2.05400E+01  1.98981E+01  1.99895E+01  4.12218E-01 -1.00174E+00  1.07151E-03  5.15996E-01 -1.35939E-04  2.17484E-04 -5.26735E-06  2.57083E-03 -3.04320E+00  5.43679E-05  9.45795E-06  6.48387E-06 -2.81489E-07  1.50000E+01
  2.05236E+01  1.98864E+01  1.99762E+01  3.98835E-01 -9.77686E-01  2.12359E-03  5.27383E-01 -1.41895E-04  2.27258E-04 -1.23647E-05  2.62650E-03 -2.97753E+00  1.27453E-04  9.07030E-06  6.12017E-06 -7.48305E-07  1.50000E+01
  2.05236E+01  1.98870E+01  2.00038E+01  3.99612E-01 -9.77834E-01  7.27086E-05  5.31186E-01 -1.39166E-04  2.23223E-04  1.69445E-06  2.60201E-03 -2.95607E+00  4.53884E-05  8.72976E-06  5.92290E-06  9.37643E-08  1.50000E+01
  2.07800E+01  1.99043E+01  1.95922E+01  4.16873E-01 -1.33387E+00  2.26168E-02  6.65507E-01 -2.01938E-04  3.27115E-04 -2.69449E-04  2.11417E-03 -4.20584E+00 -3.21655E-04  2.39879E-05  1.83581E-05  1.04686E-06  1.50000E+01
  2.05166E+01  1.98479E+01  2.01773E+01  3.48925E-01 -9.54481E-01 -1.18652E-02  5.01522E-01 -1.23558E-04  2.03547E-04  8.06452E-05  2.45625E-03 -2.86488E+00 -4.22382E-04  1.31961E-05  7.81470E-06  3.45461E-06  1.50000E+01
  2.05142E+01  1.98557E+01  2.01512E+01  3.59583E-01 -9.54453E-01 -1.04488E-02  5.08806E-01 -1.18311E-04  1.95641E-04  6.58560E-05  2.53917E-03 -2.83622E+00 -3.00783E-04  1.19963E-05  7.26686E-06  2.96301E-06  1.50000E+01
  2.03348E+01  1.97618E+01  2.00810E+01  2.54290E-01 -6.84216E-01 -9.55543E-03  2.32988E-01 -7.62639E-05  1.59137E-04  3.29738E-05  3.45142E-03 -2.26367E+00 -6.04469E-04  1.06371E-05  5.37814E-06  3.04302E-06  1.50000E+01
  2.03830E+01  1.97424E+01  2.02166E+01  2.17971E-01 -7.27397E-01 -1.71052E-02  3.65227E-01 -8.14549E-05  1.66127E-04  8.86934E-05  2.46991E-03 -2.34586E+00 -1.07961E-03  1.68973E-05  6.78671E-06  6.99246E-06  1.50000E+01
  2.04026E+01  1.97472E+01  2.02307E+01  2.22610E-01 -7.55911E-01 -1.69867E-02  4.30126E-01 -9.44740E-05  1.83460E-04  1.02967E-04  2.44211E-03 -2.42314E+00 -1.06757E-03  1.71817E-05  6.95564E-06  7.12239E-06  1.50000E+01
  2.03995E+01  1.97582E+01  2.02052E+01  2.38980E-01 -7.59625E-01 -1.65384E-02  3.94216E-01 -8.82893E-05  1.72574E-04  8.63463E-05  2.51942E-03 -2.44486E+00 -9.50204E-04  1.56350E-05  6.66531E-06  6.40335E-06  1.50000E+01
  2.01166E+01  1.96351E+01  2.01527E+01  7.44200E-02 -2.68029E-01 -1.36417E-02  1.44884E-01 -4.68454E-07  9.12371E-05  3.10483E-05  5.30221E-03 -8.42736E-01 -4.26041E-03  3.18746E-05  1.18630E-05  2.88029E-06  1.50000E+01
  2.00983E+01  1.96239E+01  2.01642E+01  5.19898E-02 -2.18529E-01 -1.11127E-02  1.48603E-01  7.87604E-06  8.63083E-05  2.98447E-05  4.93395E-03 -6.86363E-01 -5.52672E-03  3.59351E-05  1.24619E-05  2.65971E-06  1.50000E+01