 TITLE="3D TRIANGULAR SURFACE DATA"
VARIABLES="X","Y","Z","U","V","W","P", "Fex", "Fey", "Fez","Finx","Finy","Finz","WSSx","WSSy","WSSz","AMForce"
 ZONE T="unstruc"N=        1757 E=        3355 F=FEPOINT  ET=TRIANGLE
  2.03575E+01  1.96702E+01  2.00955E+01 -4.48910E-01  4.17359E-01  6.81766E-02 -9.34234E-01 -4.01651E-05 -3.86061E-04  1.25189E-05 -5.41935E-02  1.68116E+00  1.79994E-02  5.56444E-05 -1.48006E-05 -4.47988E-06  1.50000E+01
  2.03795E+01  1.96658E+01  2.00950E+01 -4.81583E-01  2.68464E-01  7.00372E-02 -6.09803E-01  8.97248E-06 -1.16093E-04 -3.02686E-07 -7.67013E-03  4.89152E-01  4.28292E-03  2.51476E-05 -4.04612E-06 -1.26311E-06  1.50000E+01
  2.03746E+01  1.96663E+01  2.00743E+01 -4.86829E-01  2.57023E-01  5.69756E-02 -6.21602E-01  7.42582E-06 -2.17890E-04  3.97043E-07 -3.08724E-02  6.93977E-01  1.49875E-02  3.81918E-05 -5.94623E-06 -1.61140E-06  1.50000E+01
  2.03549E+01  1.96729E+01  2.01266E+01 -4.16134E-01  5.22917E-01  8.39212E-02 -9.18800E-01 -2.67916E-05 -2.51873E-04  1.16622E-05 -3.29950E-02  1.81955E+00  1.92252E-02  4.74519E-05 -1.58981E-05 -6.47645E-06  1.50000E+01
  2.03757E+01  1.96669E+01  2.01159E+01 -4.67250E-01  3.47756E-01  8.26574E-02 -6.20762E-01  7.71417E-06 -1.59639E-04  1.70057E-06 -3.29136E-02  9.58758E-01  4.30660E-03  3.77808E-05 -8.06925E-06 -2.84040E-06  1.50000E+01
  2.03952E+01  1.96638E+01  2.01061E+01 -4.95079E-01  1.99182E-01  7.75450E-02 -6.22769E-01  1.91904E-05 -1.42020E-04 -2.52265E-06 -1.79516E-02  4.45246E-01  9.26646E-03  3.27788E-05 -3.66012E-06 -1.25547E-06  1.50000E+01
  2.03947E+01  1.96640E+01  2.00828E+01 -5.02165E-01  1.51533E-01  6.05505E-02 -6.35260E-01  2.17657E-05 -1.54972E-04 -3.18002E-06 -1.50497E-02  3.24223E-01  1.08590E-03  3.26984E-05 -2.71542E-06 -1.11401E-06  1.50000E+01
  2.03719E+01  1.96665E+01  2.00481E+01 -4.92073E-01  2.34825E-01  3.71613E-02 -7.47579E-01  4.55714E-06 -2.84782E-04  2.42211E-07 -2.98280E-02  6.82394E-01  6.39965E-03  4.22093E-05 -5.95768E-06 -1.24855E-06  1.50000E+01
  2.03528E+01  1.96703E+01  2.00647E+01 -4.57293E-01  3.87644E-01  4.69087E-02 -1.16356E+00 -5.64364E-05 -4.64290E-04  9.74963E-06 -3.59212E-02  1.32993E+00  5.84341E-03  4.88942E-05 -1.17003E-05 -3.04223E-06  1.50000E+01
  2.03507E+01  1.96701E+01  2.00364E+01 -4.63719E-01  3.65580E-01  2.68184E-02 -1.48307E+00 -4.32530E-05 -4.26758E-04  5.20177E-06 -3.39183E-02  1.17370E+00  3.82530E-03  4.61296E-05 -1.02189E-05 -1.48600E-06  1.50000E+01
  2.03746E+01  1.96683E+01  2.01419E+01 -4.44274E-01  4.38611E-01  9.81270E-02 -8.71923E-01  1.56264E-06 -1.64025E-04  4.06968E-06 -3.39808E-02  1.32781E+00  1.51998E-02  4.01307E-05 -1.08607E-05 -4.63374E-06  1.50000E+01
  2.03945E+01  1.96639E+01  2.01301E+01 -4.84583E-01  2.70461E-01  9.38300E-02 -6.33035E-01  1.76669E-05 -1.50995E-04 -1.74482E-06 -3.06700E-02  7.23292E-01  9.75591E-03  3.77687E-05 -5.87298E-06 -2.28105E-06  1.50000E+01
  2.03133E+01  1.96862E+01  2.00964E+01 -3.28399E-01  7.27271E-01  4.89775E-02 -7.38844E-01 -7.27347E-05 -2.95878E-04  2.27123E-05 -1.31111E-02  2.60318E+00  8.09213E-03  5.00577E-05 -2.46210E-05 -7.77816E-06  1.50000E+01
  2.03118E+01  1.96840E+01  2.00675E+01 -3.49582E-01  6.83330E-01  3.67848E-02 -9.05498E-01 -1.10791E-04 -4.05095E-04  2.28014E-05 -1.87740E-02  2.40132E+00  6.67566E-03  4.92775E-05 -2.20891E-05 -5.50213E-06  1.50000E+01
  2.02934E+01  1.96947E+01  2.00821E+01 -2.76847E-01  8.23821E-01  3.33954E-02 -9.45731E-01 -1.24346E-04 -3.44996E-04  3.14718E-05 -2.26944E-03  2.84360E+00  3.99201E-03  4.68191E-05 -2.68793E-05 -6.61722E-06  1.50000E+01
  2.03344E+01  1.96787E+01  2.01109E+01 -3.77589E-01  6.20905E-01  6.66220E-02 -8.21698E-01 -5.69702E-05 -3.25670E-04  1.98183E-05 -2.77553E-02  2.34825E+00  1.43762E-02  5.29131E-05 -2.15009E-05 -7.69384E-06  1.50000E+01
  2.03150E+01  1.96895E+01  2.01250E+01 -2.99193E-01  7.84925E-01  5.68041E-02 -8.30832E-01 -6.86023E-05 -2.54036E-04  2.85529E-05 -5.59129E-03  2.74448E+00  7.47630E-03  4.78178E-05 -2.63647E-05 -8.78063E-06  1.50000E+01
  2.03351E+01  1.96820E+01  2.01397E+01 -3.43622E-01  6.99871E-01  7.53479E-02 -8.47199E-01 -3.57776E-05 -2.16430E-04  1.74745E-05 -1.72562E-02  2.40807E+00  1.34027E-02  4.73363E-05 -2.28334E-05 -9.73811E-06  1.50000E+01
  2.03330E+01  1.96767E+01  2.00813E+01 -4.01397E-01  5.59944E-01  5.20999E-02 -1.00114E+00 -8.70143E-05 -4.53217E-04  2.07909E-05 -3.16521E-02  2.11295E+00  1.07364E-02  5.31104E-05 -1.88908E-05 -5.79783E-06  1.50000E+01
  2.03311E+01  1.96758E+01  2.00521E+01 -4.14804E-01  5.24707E-01  3.43670E-02 -1.21357E+00 -9.97062E-05 -5.08283E-04  1.53032E-05 -3.19467E-02  1.80710E+00  6.12346E-03  4.94875E-05 -1.62529E-05 -3.34449E-06  1.50000E+01
  2.04139E+01  1.96627E+01  2.00937E+01 -5.11138E-01  7.30142E-02  6.55199E-02 -5.54233E-01  3.22822E-05 -1.48334E-04 -6.42763E-06 -1.35128E-02  1.41075E-01  3.02779E-03  3.65784E-05 -1.37407E-06 -1.57430E-06  1.50000E+01
  2.04132E+01  1.96634E+01  2.00692E+01 -5.15255E-01  3.61858E-02  4.81127E-02 -5.64781E-01  3.56166E-05 -1.57660E-04 -6.07855E-06 -1.15163E-02  4.13590E-02  2.57284E-04  3.73171E-05 -6.50844E-07 -1.57197E-06  1.50000E+01
  2.04142E+01  1.96619E+01  2.01181E+01 -5.05802E-01  1.25898E-01  8.34148E-02 -5.63548E-01  3.03962E-05 -1.50230E-04 -6.05272E-06 -1.79294E-02  2.94470E-01  6.62828E-03  3.87534E-05 -2.62139E-06 -1.32057E-06  1.50000E+01
  2.03927E+01  1.96644E+01  2.00586E+01 -5.08058E-01  1.23841E-01  4.40337E-02 -6.67803E-01  2.65756E-05 -1.94747E-04 -3.19887E-06 -2.20148E-02  3.00838E-01  4.91812E-03  3.79232E-05 -2.65730E-06 -1.10787E-06  1.50000E+01
  2.04122E+01  1.96640E+01  2.00441E+01 -5.18639E-01  1.25950E-02  3.12571E-02 -5.81968E-01  3.94841E-05 -1.70628E-04 -4.57055E-06 -1.26172E-02 -2.52771E-02  1.10541E-03  3.93170E-05 -2.06484E-07 -1.20061E-06  1.50000E+01
  2.03299E+01  1.96754E+01  2.00237E+01 -4.22070E-01  5.05433E-01  1.56678E-02 -1.29306E+00 -8.31874E-05 -4.58297E-04  6.59204E-06 -3.22796E-02  1.66736E+00  2.53641E-03  4.76344E-05 -1.49148E-05 -1.40183E-06  1.50000E+01
  2.03706E+01  1.96666E+01  2.00211E+01 -4.95308E-01  2.20086E-01  1.65998E-02 -8.41390E-01  8.36749E-06 -2.87046E-04 -6.81031E-08 -2.91990E-02  6.42150E-01  2.23833E-03  4.32072E-05 -5.67836E-06 -6.03866E-07  1.50000E+01
  2.03497E+01  1.96701E+01  2.00087E+01 -4.66759E-01  3.55720E-01  6.37536E-03 -1.81135E+00 -2.45714E-05 -3.51946E-04  9.86449E-07 -3.43563E-02  1.11368E+00  5.85729E-04  4.53744E-05 -9.73050E-06 -4.52657E-07  1.50000E+01
  2.03171E+01  1.96938E+01  2.01528E+01 -2.64306E-01  8.48690E-01  5.96262E-02 -9.42460E-01 -5.46058E-05 -2.02543E-04  2.95139E-05  1.76758E-03  2.85361E+00  5.35947E-03  4.43417E-05 -2.77793E-05 -8.58418E-06  1.50000E+01
  2.03367E+01  1.96861E+01  2.01671E+01 -3.05072E-01  7.79551E-01  7.83285E-02 -9.62058E-01 -3.00198E-05 -1.75434E-04  1.94210E-05 -7.85739E-03  2.56660E+00  1.06441E-02  4.46262E-05 -2.50680E-05 -9.77051E-06  1.50000E+01
  2.07472E+01  1.96376E+01  1.97105E+01 -5.25349E-01 -7.22290E-02 -5.58173E-02 -1.41822E-01  4.33969E-05 -1.29271E-04  3.96878E-05 -1.72108E-03 -2.35357E-01  3.31455E-03  4.45342E-05 -1.90501E-06 -4.18386E-06  1.50000E+01
  2.07260E+01  1.96417E+01  1.97225E+01 -5.26387E-01 -8.49392E-02 -5.65278E-02 -1.48207E-01  4.52622E-05 -1.19761E-04  3.51596E-05 -1.48695E-03 -2.76170E-01  3.54759E-03  4.45522E-05 -1.03385E-06 -3.61632E-06  1.50000E+01
  2.07462E+01  1.96459E+01  1.97351E+01 -5.29861E-01 -9.27497E-02 -4.69295E-02 -1.28943E-01  4.49848E-05 -1.03697E-04  2.92032E-05 -1.48534E-03 -2.97362E-01  2.63664E-03  4.46341E-05 -1.43754E-06 -4.58856E-06  1.50000E+01
  2.07250E+01  1.96496E+01  1.97472E+01 -5.30647E-01 -1.04394E-01 -4.75244E-02 -1.41863E-01  4.59081E-05 -1.01263E-04  2.73782E-05 -1.32404E-03 -3.34431E-01  2.75377E-03  4.42004E-05 -6.50395E-07 -4.21307E-06  1.50000E+01
  2.07453E+01  1.96539E+01  1.97598E+01 -5.33849E-01 -1.10508E-01 -3.91512E-02 -6.97403E-02  4.57549E-05 -7.22453E-05  1.69931E-05 -1.33306E-03 -3.51450E-01  2.16255E-03  4.41557E-05 -9.96915E-07 -5.08571E-06  1.50000E+01
  2.08108E+01  1.96229E+01  1.96756E+01 -5.18693E-01 -2.47826E-02 -5.48173E-02 -1.44379E-01  4.27444E-05 -1.13980E-04  3.61562E-05 -2.37259E-03 -8.42561E-02  2.86343E-03  4.77672E-05 -4.56498E-06 -5.99566E-06  1.50000E+01
  2.07896E+01  1.96281E+01  1.96871E+01 -5.21609E-01 -4.20808E-02 -5.49523E-02 -2.24214E-01  4.08815E-05 -1.48379E-04  4.87114E-05 -2.17094E-03 -1.39155E-01  2.94863E-03  4.59581E-05 -3.65312E-06 -5.30794E-06  1.50000E+01
  2.08098E+01  1.96322E+01  1.96999E+01 -5.24440E-01 -4.98874E-02 -4.63170E-02 -1.49543E-01  4.29370E-05 -9.54322E-05  2.82683E-05 -1.92906E-03 -1.62104E-01  2.54428E-03  4.60945E-05 -4.05131E-06 -6.33966E-06  1.50000E+01
  2.04144E+01  1.96613E+01  2.01430E+01 -4.97577E-01  1.95052E-01  1.01304E-01 -5.87805E-01  2.69525E-05 -1.59620E-04 -5.46662E-06 -2.61153E-02  5.13759E-01  8.97722E-03  4.14734E-05 -4.42351E-06 -1.73747E-06  1.50000E+01
  2.08089E+01  1.96413E+01  1.97242E+01 -5.29429E-01 -7.22070E-02 -3.86063E-02 -1.20966E-01  4.54654E-05 -6.61079E-05  1.59615E-05 -1.62363E-03 -2.31673E-01  2.34043E-03  4.69101E-05 -3.70914E-06 -6.92820E-06  1.50000E+01
  2.08301E+01  1.96363E+01  1.97126E+01 -5.26844E-01 -5.69816E-02 -3.91114E-02 -9.91075E-02  4.64567E-05 -5.96776E-05  1.34612E-05 -1.68191E-03 -1.83908E-01  2.45809E-03  4.83456E-05 -4.60936E-06 -7.59442E-06  1.50000E+01
  2.04323E+01  1.96647E+01  2.00302E+01 -5.22976E-01 -7.13706E-02  1.97987E-02 -4.52860E-01  4.55815E-05 -1.21331E-04 -3.47365E-06 -5.32872E-03 -2.72503E-01 -3.76622E-04  3.97611E-05  1.72302E-06 -1.12130E-06  1.50000E+01
  2.04116E+01  1.96643E+01  2.00184E+01 -5.20409E-01 -1.71924E-04  1.38587E-02 -5.98655E-01  4.20645E-05 -1.78029E-04 -2.03674E-06 -1.19493E-02 -6.60848E-02  7.40592E-04  4.07377E-05  4.47252E-08 -5.70163E-07  1.50000E+01
  2.03550E+01  1.96757E+01  2.01543E+01 -3.82079E-01  6.16088E-01  9.33537E-02 -1.12101E+00 -2.51946E-05 -2.05664E-04  1.39340E-05 -2.52150E-02  2.00334E+00  1.74141E-02  4.40767E-05 -1.82805E-05 -8.66759E-06  1.50000E+01
  2.03565E+01  1.96792E+01  2.01811E+01 -3.43332E-01  7.07369E-01  9.73480E-02 -9.01314E-01 -3.24778E-05 -2.00384E-04  1.96037E-05 -1.82091E-02  2.26189E+00  1.59830E-02  4.33463E-05 -2.15327E-05 -9.66356E-06  1.50000E+01
  2.03751E+01  1.96702E+01  2.01682E+01 -4.14743E-01  5.33737E-01  1.09612E-01 -1.14537E+00 -1.68149E-05 -1.91432E-04  1.06048E-05 -3.23292E-02  1.64638E+00  1.94632E-02  4.01984E-05 -1.38169E-05 -7.03163E-06  1.50000E+01
  2.03293E+01  1.96753E+01  1.99958E+01 -4.23618E-01  5.02337E-01 -3.39727E-03 -1.36356E+00 -7.62703E-05 -4.33202E-04 -7.11873E-07 -3.25499E-02  1.61900E+00 -1.04663E-03  4.68071E-05 -1.45315E-05  2.01030E-07  1.50000E+01
  2.03700E+01  1.96667E+01  1.99941E+01 -4.95915E-01  2.18593E-01 -4.02031E-03 -9.01619E-01  9.22372E-06 -2.86192E-04  3.39379E-08 -2.94809E-02  6.33124E-01 -6.68587E-04  4.32598E-05 -5.62705E-06  4.99530E-08  1.50000E+01
  2.03494E+01  1.96702E+01  1.99813E+01 -4.65502E-01  3.61937E-01 -1.40023E-02 -1.78710E+00 -2.27261E-05 -3.36057E-04 -1.70050E-06 -3.46508E-02  1.11819E+00 -2.71183E-03  4.47561E-05 -9.75364E-06  5.67378E-07  1.50000E+01
  2.07646E+01  1.96655E+01  1.97972E+01 -5.39909E-01 -1.30542E-01 -2.59050E-02 -7.10691E-02  4.55032E-05 -6.20594E-05  1.28077E-05 -1.18383E-03 -4.12765E-01  1.69146E-03  4.39462E-05 -3.80867E-07 -4.84622E-06  1.50000E+01
  2.07858E+01  1.96622E+01  1.97850E+01 -5.38965E-01 -1.20690E-01 -2.55912E-02 -6.54747E-02  4.60287E-05 -5.19495E-05  9.64500E-06 -1.21205E-03 -3.82681E-01  1.85952E-03  4.50350E-05 -1.31248E-06 -5.70693E-06  1.50000E+01
  2.07655E+01  1.96581E+01  1.97724E+01 -5.36608E-01 -1.15740E-01 -3.19048E-02 -5.33669E-02  4.59892E-05 -5.51581E-05  1.08153E-05 -1.28947E-03 -3.67023E-01  1.90471E-03  4.45426E-05 -1.21818E-06 -5.59511E-06  1.50000E+01
  2.04339E+01  1.96618E+01  2.01054E+01 -5.16153E-01  9.81083E-03  6.88203E-02 -4.77219E-01  3.96006E-05 -1.34226E-04 -9.69539E-06 -9.42681E-03 -3.24866E-02  1.09425E-03  3.88283E-05  3.69616E-08 -2.29289E-06  1.50000E+01
  2.01130E+01  1.99111E+01  2.01915E+01  5.31711E-03  1.24750E+00 -4.59372E-04 -4.31999E-01  5.41792E-05 -5.15655E-05 -9.41075E-06  2.09160E-03  3.91635E+00  4.85227E-05  4.76641E-05 -5.69460E-05 -4.16961E-06  1.50000E+01
  2.01021E+01  1.99321E+01  2.02020E+01  3.08140E-03  1.25202E+00 -1.68941E-04 -5.12773E-01  1.49918E-04  1.23300E-05 -7.74099E-05  1.54475E-03  3.93071E+00  3.35832E-04  5.85948E-05 -6.80734E-05 -2.40104E-06  1.50000E+01
  2.01206E+01  1.99224E+01  2.02149E+01  3.12432E-03  1.25113E+00 -2.16907E-04 -3.31985E-01  1.19633E-04 -2.55481E-05 -5.29239E-05  1.88555E-03  3.93832E+00  3.39463E-04  6.02003E-05 -7.37252E-05 -4.82459E-06  1.50000E+01
  2.08282E+01  1.96543E+01  1.97612E+01 -5.35861E-01 -9.78183E-02 -2.58191E-02 -2.37272E-02  4.86274E-05  1.86546E-05 -1.54978E-05 -1.25898E-03 -3.12217E-01  2.29893E-03  4.81773E-05 -3.34464E-06 -7.46853E-06  1.50000E+01
  2.08494E+01  1.96497E+01  1.97496E+01 -5.33632E-01 -8.45330E-02 -2.67093E-02  8.20772E-03  2.47160E-05  9.27445E-06 -8.06086E-06 -3.71223E-04 -1.28303E-01  5.20660E-03  2.46887E-05 -2.04554E-06 -3.94839E-06  1.50000E+01
  2.08292E+01  1.96455E+01  1.97369E+01 -5.31654E-01 -7.85310E-02 -3.21173E-02 -7.44252E-02  4.83315E-05 -1.54886E-05 -3.37474E-06 -1.43786E-03 -2.51571E-01  2.37390E-03  4.88043E-05 -4.07563E-06 -7.71252E-06  1.50000E+01
  2.07665E+01  1.96501E+01  1.97478E+01 -5.32863E-01 -9.89114E-02 -3.87417E-02 -9.92718E-02  4.56388E-05 -7.89810E-05  1.95406E-05 -1.43544E-03 -3.15092E-01  2.17176E-03  4.50344E-05 -1.93900E-06 -5.85578E-06  1.50000E+01
  2.07867E+01  1.96543E+01  1.97604E+01 -5.35431E-01 -1.04481E-01 -3.16480E-02 -6.21149E-02  4.63647E-05 -5.11334E-05  9.34119E-06 -1.34868E-03 -3.32209E-01  2.03022E-03  4.60241E-05 -2.28004E-06 -6.71340E-06  1.50000E+01
  2.03292E+01  1.96757E+01  1.99682E+01 -4.19129E-01  5.16251E-01 -2.20226E-02 -1.34249E+00 -7.35893E-05 -4.11201E-04 -7.42850E-06 -3.18559E-02  1.64424E+00 -4.36895E-03  4.61875E-05 -1.48024E-05  1.84914E-06  1.50000E+01
  2.03105E+01  1.96828E+01  2.00388E+01 -3.62656E-01  6.55792E-01  2.17814E-02 -1.04343E+00 -1.41829E-04 -4.94360E-04  1.68194E-05 -2.17436E-02  2.22792E+00  3.80393E-03  4.85184E-05 -2.04275E-05 -2.85419E-06  1.50000E+01
  2.03098E+01  1.96823E+01  2.00104E+01 -3.68449E-01  6.43967E-01  5.51815E-03 -1.06524E+00 -1.58860E-04 -5.42367E-04  5.49884E-06 -2.30404E-02  2.13379E+00  7.92968E-04  4.78794E-05 -1.96144E-05 -7.45308E-07  1.50000E+01
  2.07906E+01  1.96190E+01  1.96628E+01 -5.15526E-01 -1.52540E-02 -6.47117E-02 -1.95657E-01  3.98343E-05 -1.54460E-04  5.19042E-05 -2.72304E-03 -5.70591E-02  3.54271E-03  4.69595E-05 -4.08409E-06 -4.83548E-06  1.50000E+01
  2.07241E+01  1.96572E+01  1.97720E+01 -5.34437E-01 -1.21011E-01 -3.96803E-02 -5.37615E-02  4.57521E-05 -6.75678E-05  1.53688E-05 -1.22836E-03 -3.84430E-01  2.18689E-03  4.37925E-05 -1.59652E-07 -4.47891E-06  1.50000E+01
  2.07444E+01  1.96614E+01  1.97846E+01 -5.37383E-01 -1.25999E-01 -3.23190E-02 -4.88814E-02  4.57967E-05 -5.37088E-05  1.05868E-05 -1.22865E-03 -3.98781E-01  1.82141E-03  4.43031E-05 -3.49873E-07 -4.94119E-06  1.50000E+01
  2.02919E+01  1.96925E+01  2.00535E+01 -2.94437E-01  7.93204E-01  2.33835E-02 -1.16350E+00 -1.97041E-04 -4.99601E-04  3.18011E-05 -6.78222E-03  2.70538E+00  3.32591E-03  4.68542E-05 -2.51253E-05 -4.23200E-06  1.50000E+01
  2.02731E+01  1.97023E+01  2.00396E+01 -2.39461E-01  8.88520E-01  1.29668E-02 -1.04587E+00 -2.37533E-04 -5.05466E-04  2.85840E-05  2.87191E-03  2.97398E+00  1.21222E-03  4.51330E-05 -2.79511E-05 -3.41301E-06  1.50000E+01
  2.02744E+01  1.97042E+01  2.00679E+01 -2.26387E-01  9.08026E-01  2.08667E-02 -9.25967E-01 -1.56682E-04 -3.57482E-04  3.32083E-05  5.53269E-03  3.06480E+00  1.37303E-03  4.44166E-05 -2.88625E-05 -5.47727E-06  1.50000E+01
  2.04334E+01  1.96630E+01  2.00806E+01 -5.18876E-01 -2.90146E-02  5.16613E-02 -4.62029E-01  4.11253E-05 -1.26754E-04 -8.40213E-06 -6.72975E-03 -1.42853E-01 -3.89179E-04  3.79418E-05  8.41486E-07 -2.37773E-06  1.50000E+01
  2.04329E+01  1.96640E+01  2.00556E+01 -5.21163E-01 -5.55971E-02  3.54082E-02 -4.54218E-01  4.33406E-05 -1.23004E-04 -6.26259E-06 -5.37121E-03 -2.22299E-01 -1.11619E-03  3.86222E-05  1.37455E-06 -1.85479E-06  1.50000E+01
  2.04526E+01  1.96662E+01  2.00168E+01 -5.24776E-01 -1.29060E-01  1.02983E-02 -3.31200E-01  4.67417E-05 -7.28906E-05 -1.43290E-06 -1.25476E-03 -4.37014E-01 -5.08133E-04  4.02975E-05  3.07884E-06 -5.82444E-07  1.50000E+01
  2.04320E+01  1.96650E+01  2.00046E+01 -5.23907E-01 -7.71312E-02  4.18612E-03 -4.53091E-01  4.68879E-05 -1.22326E-04 -4.97408E-07 -5.06981E-03 -2.92970E-01  2.85893E-04  4.05888E-05  1.86901E-06 -1.66974E-07  1.50000E+01
  2.07877E+01  1.96459E+01  1.97359E+01 -5.31413E-01 -8.61674E-02 -3.85264E-02 -1.17427E-01  4.50019E-05 -8.00271E-05  2.07720E-05 -1.53356E-03 -2.75318E-01  2.23467E-03  4.59007E-05 -2.80006E-06 -6.33187E-06  1.50000E+01
  2.07886E+01  1.96372E+01  1.97115E+01 -5.26844E-01 -6.55036E-02 -4.62683E-02 -1.39444E-01  4.33487E-05 -1.13064E-04  3.39816E-05 -1.79679E-03 -2.11352E-01  2.52824E-03  4.59032E-05 -3.32897E-06 -6.04960E-06  1.50000E+01
  2.07048E+01  1.96453E+01  1.97346E+01 -5.27004E-01 -9.60193E-02 -5.74128E-02 -1.61180E-01  4.62581E-05 -1.28494E-04  3.71930E-05 -1.24977E-03 -3.12070E-01  3.80141E-03  4.38598E-05 -1.72944E-07 -2.94878E-06  1.50000E+01
  2.02977E+01  1.97024E+01  2.01384E+01 -2.22981E-01  9.13049E-01  4.26994E-02 -8.88644E-01 -8.58566E-05 -2.37066E-04  4.01047E-05  9.01992E-03  3.08188E+00  1.34870E-03  4.35686E-05 -3.00134E-05 -7.53557E-06  1.50000E+01
  2.02820E+01  1.97171E+01  2.01514E+01 -1.56820E-01  1.00839E+00  2.81211E-02 -8.78233E-01 -8.77057E-05 -2.04011E-04  4.77516E-05  1.61808E-02  3.34834E+00 -2.81755E-03  4.04405E-05 -3.25660E-05 -6.03363E-06  1.50000E+01
  2.03008E+01  1.97078E+01  2.01657E+01 -1.90389E-01  9.62976E-01  4.14919E-02 -8.66906E-01 -6.67538E-05 -1.88555E-04  4.08166E-05  1.38642E-02  3.19267E+00 -1.11686E-03  4.20165E-05 -3.17295E-05 -6.74584E-06  1.50000E+01
  2.08079E+01  1.96501E+01  1.97485E+01 -5.33796E-01 -9.21144E-02 -3.16684E-02 -8.49845E-02  4.68530E-05 -3.05317E-05  2.28406E-06 -1.40206E-03 -2.93905E-01  2.19897E-03  4.70140E-05 -3.16726E-06 -7.18605E-06  1.50000E+01
  2.07270E+01  1.96334E+01  1.96978E+01 -5.21559E-01 -6.17833E-02 -6.69734E-02 -1.79415E-01  4.34707E-05 -1.45982E-04  4.54370E-05 -1.77108E-03 -2.07369E-01  4.59957E-03  4.45564E-05 -1.60975E-06 -3.55656E-06  1.50000E+01
  2.07058E+01  1.96374E+01  1.97098E+01 -5.22452E-01 -7.33846E-02 -6.81080E-02 -1.85278E-01  4.48459E-05 -1.37813E-04  4.19913E-05 -1.45388E-03 -2.45416E-01  4.97533E-03  4.39697E-05 -5.57924E-07 -2.34860E-06  1.50000E+01
  2.03766E+01  1.96729E+01  2.01945E+01 -3.77878E-01  6.33582E-01  1.15554E-01 -9.78767E-01 -2.19326E-05 -1.83471E-04  1.44756E-05 -2.77717E-02  1.98081E+00  2.07931E-02  4.16721E-05 -1.79175E-05 -9.01117E-06  1.50000E+01
  2.03954E+01  1.96654E+01  2.01814E+01 -4.41665E-01  4.53330E-01  1.23631E-01 -6.15732E-01  2.80650E-06 -1.55027E-04  1.81846E-06 -3.67116E-02  1.35972E+00  2.09199E-02  3.91408E-05 -1.09229E-05 -6.73369E-06  1.50000E+01
  2.03589E+01  1.96835E+01  2.02074E+01 -2.99009E-01  7.98124E-01  9.52885E-02 -7.79742E-01 -2.95591E-05 -1.70030E-04  2.36857E-05 -7.93055E-03  2.55575E+00  1.24060E-02  4.40377E-05 -2.57387E-05 -9.59951E-06  1.50000E+01
  2.03698E+01  1.96667E+01  1.99672E+01 -4.93393E-01  2.33206E-01 -2.44502E-02 -1.14727E+00  6.90733E-06 -2.83769E-04 -1.36602E-07 -3.00564E-02  6.77582E-01 -3.11628E-03  4.29689E-05 -5.94919E-06  6.70292E-07  1.50000E+01
  2.07684E+01  1.96331E+01  1.96987E+01 -5.23792E-01 -5.79219E-02 -5.52909E-02 -2.05175E-01  4.15476E-05 -1.60799E-04  5.21534E-05 -1.95256E-03 -1.89611E-01  3.09943E-03  4.52505E-05 -2.82992E-06 -4.88359E-06  1.50000E+01
  2.07694E+01  1.96241E+01  1.96743E+01 -5.18219E-01 -3.25954E-02 -6.53230E-02 -2.50277E-01  3.92867E-05 -1.86382E-04  6.32026E-05 -2.41222E-03 -1.12727E-01  3.84147E-03  4.57215E-05 -3.12006E-06 -3.98199E-06  1.50000E+01
  2.07482E+01  1.96290E+01  1.96860E+01 -5.20188E-01 -4.81504E-02 -6.60580E-02 -2.47600E-01  4.10904E-05 -1.71420E-04  5.64697E-05 -2.09557E-03 -1.63007E-01  4.20972E-03  4.48820E-05 -2.27660E-06 -3.53630E-06  1.50000E+01
  2.06846E+01  1.96410E+01  1.97220E+01 -5.22977E-01 -8.28931E-02 -6.94736E-02 -1.71836E-01  4.66712E-05 -1.38054E-04  4.11173E-05 -1.15092E-03 -2.77090E-01  5.33373E-03  4.39739E-05  2.15790E-07 -1.77247E-06  1.50000E+01
  2.04544E+01  1.96614E+01  2.01175E+01 -5.18724E-01 -3.77137E-02  7.04645E-02 -4.16251E-01  4.41994E-05 -1.16460E-04 -1.18809E-05 -5.46198E-03 -1.68749E-01 -1.35378E-03  4.03845E-05  1.24640E-06 -2.65156E-06  1.50000E+01
  2.04344E+01  1.96605E+01  2.01303E+01 -5.12363E-01  6.23084E-02  8.68541E-02 -5.22446E-01  3.87976E-05 -1.47521E-04 -9.95515E-06 -1.38872E-02  1.19301E-01  3.24724E-03  4.19806E-05 -1.22468E-06 -1.51225E-06  1.50000E+01
  2.02953E+01  1.96980E+01  2.01105E+01 -2.52531E-01  8.65100E-01  4.00352E-02 -8.08896E-01 -9.09714E-05 -2.64902E-04  3.36816E-05  3.19312E-03  2.97287E+00  3.28048E-03  4.53904E-05 -2.83937E-05 -7.51180E-06  1.50000E+01
  2.02763E+01  1.97074E+01  2.00961E+01 -2.07285E-01  9.36389E-01  2.62935E-02 -8.93622E-01 -1.14174E-04 -2.72638E-04  3.66517E-05  9.19173E-03  3.16501E+00  6.43088E-04  4.30531E-05 -2.97824E-05 -6.19518E-06  1.50000E+01
  2.01100E+01  1.99440E+01  2.02248E+01 -7.19563E-06  1.25599E+00  0.00000E+00 -2.98460E-02  1.30462E-04  4.12220E-05 -7.64454E-05  3.03389E+00 -3.94713E+01 -3.76917E+01  3.58488E-05 -4.04232E-05  5.24533E-07  1.50000E+01
  2.08513E+01  1.96311E+01  1.97012E+01 -5.23610E-01 -4.04856E-02 -4.02058E-02 -9.08718E-02  2.29572E-05 -3.12301E-05  7.35452E-06  1.15329E-04 -5.74204E-02  5.84996E-03  2.41436E-05 -2.55947E-06 -3.89763E-06  1.50000E+01
  2.08311E+01  1.96269E+01  1.96884E+01 -5.21326E-01 -3.29654E-02 -4.67348E-02 -1.30789E-01  4.52342E-05 -7.90510E-05  2.18391E-05 -2.02912E-03 -1.08750E-01  2.60702E-03  4.85021E-05 -4.98688E-06 -7.11439E-06  1.50000E+01
  2.07068E+01  1.96293E+01  1.96851E+01 -5.17255E-01 -4.54393E-02 -8.07480E-02 -3.01675E-01  4.26371E-05 -1.75636E-04  5.61159E-05 -1.88328E-03 -1.63445E-01  6.35402E-03  4.40568E-05 -1.00239E-06 -1.77329E-06  1.50000E+01
  2.06856E+01  1.96333E+01  1.96971E+01 -5.18111E-01 -5.46127E-02 -8.25472E-02 -2.15985E-01  4.53629E-05 -1.63673E-04  5.00817E-05 -1.53968E-03 -1.94616E-01  6.78454E-03  4.44960E-05 -3.49099E-07 -1.54953E-06  1.50000E+01
  2.03095E+01  1.96825E+01  1.99825E+01 -3.67120E-01  6.48097E-01 -1.08717E-02 -1.09863E+00 -1.50509E-04 -5.13961E-04 -7.17363E-06 -2.27714E-02  2.11111E+00 -2.14148E-03  4.69782E-05 -1.93844E-05  1.41556E-06  1.50000E+01
  2.04349E+01  1.96591E+01  2.01555E+01 -5.06091E-01  1.29637E-01  1.05582E-01 -5.64403E-01  3.34495E-05 -1.68052E-04 -1.05388E-05 -2.04984E-02  3.23157E-01  6.05978E-03  4.31736E-05 -2.83497E-06 -1.76511E-06  1.50000E+01
  2.03199E+01  1.96991E+01  2.01799E+01 -2.26230E-01  9.12442E-01  5.76826E-02 -9.30737E-01 -4.82281E-05 -1.73156E-04  3.34108E-05  8.82184E-03  2.99995E+00  2.09223E-03  4.24787E-05 -2.97826E-05 -7.44354E-06  1.50000E+01
  2.03392E+01  1.96911E+01  2.01938E+01 -2.62911E-01  8.57247E-01  7.59352E-02 -8.36530E-01 -3.48256E-05 -1.63566E-04  2.70642E-05  1.32954E-03  2.78158E+00  6.72388E-03  4.30015E-05 -2.76618E-05 -8.33784E-06  1.50000E+01
  2.01240E+01  1.98905E+01  2.01806E+01  6.32066E-03  1.24213E+00 -7.67468E-04 -3.69889E-01  2.37546E-05 -6.80703E-05  9.76022E-06  2.46801E-03  3.90990E+00 -2.31754E-05  4.42582E-05 -5.09264E-05 -2.41524E-06  1.50000E+01
  2.01061E+01  1.99010E+01  2.01675E+01  6.65714E-03  1.24482E+00 -6.05305E-04 -3.57726E-01  2.92283E-05 -6.74993E-05  7.36274E-06  2.06040E-03  3.89382E+00 -1.42777E-05  4.58426E-05 -5.19886E-05 -2.27757E-06  1.50000E+01
  2.07704E+01  1.96152E+01  1.96499E+01 -5.11656E-01 -2.75999E-03 -7.68646E-02 -2.93055E-01  3.67614E-05 -1.93761E-04  6.62433E-05 -3.10581E-03 -2.27968E-02  4.75807E-03  4.59379E-05 -3.54588E-06 -3.52188E-06  1.50000E+01
  2.02550E+01  1.97132E+01  2.00259E+01 -1.88345E-01  9.68138E-01  5.85972E-03 -9.28505E-01 -2.36084E-04 -4.41786E-04  1.94538E-05  8.96523E-03  3.19641E+00  2.36636E-04  4.20732E-05 -2.91772E-05 -2.09534E-06  1.50000E+01
  2.02561E+01  1.97148E+01  2.00539E+01 -1.79779E-01  9.79237E-01  1.17578E-02 -8.06159E-01 -1.75826E-04 -3.46301E-04  3.09235E-05  1.01846E-02  3.25284E+00  5.20784E-05  4.17620E-05 -2.98640E-05 -3.64280E-06  1.50000E+01
  2.04539E+01  1.96631E+01  2.00925E+01 -5.20619E-01 -7.57204E-02  5.39313E-02 -3.88263E-01  4.38983E-05 -1.00155E-04 -9.45206E-06 -3.06386E-03 -2.76584E-01 -1.96055E-03  3.86084E-05  1.97980E-06 -2.59547E-06  1.50000E+01
  2.04534E+01  1.96646E+01  2.00674E+01 -5.22228E-01 -1.02819E-01  3.85797E-02 -3.49725E-01  4.44123E-05 -8.60042E-05 -6.47571E-06 -1.78042E-03 -3.54819E-01 -2.00489E-03  3.85459E-05  2.48012E-06 -1.99305E-06  1.50000E+01
  2.02859E+01  1.97237E+01  2.01782E+01 -1.29052E-01  1.04603E+00  2.49387E-02 -7.39439E-01 -9.05535E-05 -1.94573E-04  5.71629E-05  1.85859E-02  3.43950E+00 -4.87107E-03  3.85971E-05 -3.36439E-05 -5.41706E-06  1.50000E+01
  2.02721E+01  1.97410E+01  2.01904E+01 -8.25048E-02  1.10448E+00  1.22015E-02 -6.60126E-01 -1.07116E-04 -1.95533E-04  7.16751E-05  1.76023E-02  3.60309E+00 -5.82340E-03  3.65923E-05 -3.56318E-05 -4.82342E-06  1.50000E+01
  2.02905E+01  1.97313E+01  2.02045E+01 -1.01952E-01  1.08166E+00  1.99276E-02 -6.81164E-01 -8.48831E-05 -1.75568E-04  6.17710E-05  1.96764E-02  3.52725E+00 -6.62929E-03  3.70612E-05 -3.51356E-05 -5.24606E-06  1.50000E+01
  2.06645E+01  1.96368E+01  1.97093E+01 -5.18663E-01 -6.11077E-02 -8.46488E-02 -2.18783E-01  4.65630E-05 -1.52310E-04  4.53283E-05 -1.26066E-03 -2.17533E-01  7.12780E-03  4.40176E-05  3.53880E-07 -9.06811E-07  1.50000E+01
  2.02910E+01  1.96914E+01  2.00251E+01 -3.04643E-01  7.75546E-01  1.11434E-02 -1.35981E+00 -2.64940E-04 -6.47589E-04  1.97941E-05 -9.45436E-03  2.59940E+00  1.65662E-03  4.63655E-05 -2.38820E-05 -2.11095E-06  1.50000E+01
  2.02905E+01  1.96911E+01  1.99970E+01 -3.07320E-01  7.71628E-01 -2.01331E-03 -1.39660E+00 -2.79762E-04 -6.79839E-04 -1.39872E-06 -1.00891E-02  2.54657E+00 -3.05091E-04  4.56250E-05 -2.32693E-05  3.72456E-07  1.50000E+01
  2.04530E+01  1.96656E+01  2.00422E+01 -5.23667E-01 -1.20291E-01  2.41674E-02 -3.35956E-01  4.54703E-05 -7.68503E-05 -3.82910E-06 -1.23410E-03 -4.08053E-01 -1.54207E-03  3.92512E-05  2.84517E-06 -1.40297E-06  1.50000E+01
  2.07492E+01  1.96202E+01  1.96615E+01 -5.14164E-01 -1.93664E-02 -7.79839E-02 -2.88020E-01  3.84280E-05 -2.00855E-04  6.80728E-05 -2.68616E-03 -7.70074E-02  5.29857E-03  4.54372E-05 -2.60505E-06 -2.67980E-06  1.50000E+01
  2.07280E+01  1.96250E+01  1.96732E+01 -5.15983E-01 -3.36507E-02 -7.92445E-02 -2.80011E-01  4.06717E-05 -1.90521E-04  6.26939E-05 -2.27735E-03 -1.24108E-01  5.85020E-03  4.47237E-05 -1.86129E-06 -2.45456E-06  1.50000E+01
  2.02788E+01  1.97117E+01  2.01240E+01 -1.83517E-01  9.70886E-01  2.87171E-02 -8.84664E-01 -1.04197E-04 -2.42638E-04  4.41046E-05  1.29082E-02  3.25871E+00 -8.59695E-04  4.19141E-05 -3.12571E-05 -6.45244E-06  1.50000E+01
  2.02604E+01  1.97217E+01  2.01097E+01 -1.47618E-01  1.02141E+00  1.80678E-02 -9.43215E-01 -1.19247E-04 -2.44890E-04  4.56353E-05  1.43717E-02  3.39779E+00 -1.79863E-03  3.99481E-05 -3.16886E-05 -4.92094E-06  1.50000E+01
  2.04933E+01  1.96702E+01  1.99903E+01 -5.27885E-01 -1.86293E-01 -3.17426E-03 -1.96796E-01  4.62934E-05 -2.66207E-05  1.22845E-07  3.70274E-04 -5.93747E-01  3.12796E-04  4.23009E-05  4.56520E-06 -2.07207E-07  1.50000E+01
  2.04728E+01  1.96679E+01  1.99779E+01 -5.26496E-01 -1.62589E-01 -9.56644E-03 -2.51475E-01  4.69363E-05 -4.61470E-05  1.02170E-06  5.43908E-05 -5.33614E-01  9.42647E-04  4.12622E-05  3.94002E-06  2.03942E-07  1.50000E+01
  2.04730E+01  1.96681E+01  2.00035E+01 -5.26163E-01 -1.65499E-01  2.74511E-03 -2.49133E-01  4.65014E-05 -4.13223E-05 -1.80611E-07  2.39454E-04 -5.38117E-01 -1.36772E-04  4.12427E-05  3.99568E-06 -8.98591E-08  1.50000E+01
  2.07502E+01  1.96115E+01  1.96370E+01 -5.06928E-01  1.57324E-02 -9.19995E-02 -3.30327E-01  3.34941E-05 -2.37618E-04  8.11262E-05 -3.63106E-03  2.74545E-02  6.41027E-03  4.51768E-05 -2.84501E-06 -1.53481E-06  1.50000E+01
  2.04556E+01  1.96573E+01  2.01680E+01 -5.11213E-01  7.70689E-02  1.07427E-01 -4.96683E-01  3.77391E-05 -1.62887E-04 -1.58530E-05 -1.50761E-02  1.68552E-01  2.71147E-03  4.24020E-05 -1.28927E-06 -2.71403E-06  1.50000E+01
  2.04550E+01  1.96594E+01  2.01427E+01 -5.15966E-01  1.27091E-02  8.83111E-02 -4.49716E-01  4.47064E-05 -1.37438E-04 -1.29697E-05 -9.38322E-03 -2.28966E-02  1.05106E-04  4.38937E-05  6.32286E-08 -1.43688E-06  1.50000E+01
  2.02579E+01  1.97177E+01  2.00819E+01 -1.65824E-01  9.97592E-01  1.59910E-02 -9.02736E-01 -1.21060E-04 -2.57294E-04  3.40593E-05  1.21951E-02  3.32355E+00 -6.39464E-04  4.09743E-05 -3.07002E-05 -4.69452E-06  1.50000E+01
  2.03091E+01  1.97220E+01  2.02184E+01 -1.23888E-01  1.05643E+00  3.00677E-02 -6.57238E-01 -6.79194E-05 -1.62243E-04  5.36361E-05  2.08969E-02  3.43638E+00 -6.87144E-03  3.77870E-05 -3.46369E-05 -5.83690E-06  1.50000E+01
  2.03278E+01  1.97129E+01  2.02322E+01 -1.48027E-01  1.02858E+00  4.26213E-02 -7.74873E-01 -5.84064E-05 -1.57263E-04  4.93947E-05  2.08497E-02  3.33303E+00 -6.27687E-03  3.87043E-05 -3.39061E-05 -6.21871E-06  1.50000E+01
  2.03234E+01  1.97055E+01  2.02063E+01 -1.86727E-01  9.73213E-01  5.16267E-02 -7.41331E-01 -5.39689E-05 -1.65792E-04  4.21023E-05  1.58146E-02  3.17074E+00 -2.12060E-03  4.05184E-05 -3.17706E-05 -6.66595E-06  1.50000E+01
  2.00885E+01  1.99118E+01  2.01545E+01  6.90640E-03  1.24734E+00 -5.83519E-04 -3.33936E-01  3.87211E-05 -5.89297E-05  6.78289E-07  1.71650E-03  3.86448E+00 -5.34569E-05  4.54487E-05 -5.16398E-05 -3.00369E-06  1.50000E+01
  2.00770E+01  1.99316E+01  2.01656E+01  5.34514E-03  1.25088E+00 -4.63088E-04 -3.95581E-01  5.87736E-05 -4.93702E-05 -1.27051E-05  1.45522E-03  3.84624E+00 -5.48505E-05  4.85063E-05 -5.69911E-05 -5.86510E-06  1.50000E+01