 TITLE="3D TRIANGULAR SURFACE DATA"
VARIABLES="X","Y","Z","U","V","W","P", "Fex", "Fey", "Fez","Finx","Finy","Finz","WSSx","WSSy","WSSz","AMForce"
 ZONE T="unstruc"N=        1757 E=        3355 F=FEPOINT  ET=TRIANGLE
  2.04613E+01  2.03492E+01  2.00930E+01 -1.46224E-01  3.40064E-01 -3.43770E-02  1.39530E-01  4.35326E-05  5.26938E-05  2.93287E-07  2.14182E-04  1.40922E+00 -2.03523E-03  3.41635E-05 -3.80787E-06  1.07812E-05  1.50000E+01
  2.04831E+01  2.03455E+01  2.00935E+01 -1.35690E-01  3.69614E-01 -3.53558E-02  7.23499E-02  1.87180E-05  1.59140E-05  2.60244E-06 -7.83196E-03  7.19207E-01  1.10411E-03  1.56149E-05 -1.81445E-06  5.76041E-06  1.50000E+01
  2.04786E+01  2.03430E+01  2.00731E+01 -1.35265E-01  3.67473E-01 -2.88556E-02  4.78265E-02  2.58371E-05  1.63970E-05  4.48054E-06  2.83441E-04  1.05165E+00 -5.81766E-03  2.24847E-05 -3.01803E-06  7.05781E-06  1.50000E+01
  2.04576E+01  2.03559E+01  2.01227E+01 -1.49840E-01  3.26008E-01 -4.48620E-02  6.00256E-02  3.83742E-05  3.85810E-05  3.41295E-06 -6.17381E-04  1.13893E+00 -4.35925E-03  3.17893E-05 -2.41888E-06  1.25635E-05  1.50000E+01
  2.04789E+01  2.03502E+01  2.01136E+01 -1.37258E-01  3.57972E-01 -4.15947E-02  1.10449E-01  3.27265E-05  4.75165E-05 -1.37749E-06  2.11228E-03  1.02032E+00  6.07427E-03  2.39251E-05 -2.32123E-06  9.28028E-06  1.50000E+01
  2.04982E+01  2.03448E+01  2.01052E+01 -1.26567E-01  3.87347E-01 -4.09132E-02  4.57692E-02  2.40137E-05  2.03367E-05  3.97190E-06 -2.72748E-03  9.49965E-01 -2.64509E-03  1.98683E-05 -2.13797E-06  8.40794E-06  1.50000E+01
  2.04980E+01  2.03408E+01  2.00823E+01 -1.25343E-01  3.92854E-01 -3.21449E-02  7.03416E-02  2.36371E-05  2.01284E-05  3.73543E-06 -3.03850E-03  9.70569E-01  1.97553E-03  1.94644E-05 -2.56341E-06  7.26249E-06  1.50000E+01
  2.04762E+01  2.03405E+01  2.00473E+01 -1.34652E-01  3.68504E-01 -1.86981E-02  3.25698E-02  2.68312E-05  1.55458E-05  3.49351E-06  4.23864E-04  1.15038E+00 -1.69508E-03  2.37170E-05 -3.60970E-06  5.31655E-06  1.50000E+01
  2.04571E+01  2.03454E+01  2.00630E+01 -1.46374E-01  3.41368E-01 -2.31058E-02  1.27063E-02  3.18612E-05  2.28249E-05  4.09865E-06  6.30352E-04  1.20429E+00  1.14556E-03  2.76972E-05 -3.61350E-06  7.45887E-06  1.50000E+01
  2.04554E+01  2.03430E+01  2.00354E+01 -1.46002E-01  3.43079E-01 -1.29595E-02 -6.72567E-03  2.63656E-05  3.63214E-06  4.04418E-06  2.94452E-04  1.13775E+00  1.55997E-04  2.53567E-05 -3.77933E-06  4.56290E-06  1.50000E+01
  2.04769E+01  2.03564E+01  2.01387E+01 -1.39831E-01  3.46332E-01 -5.12248E-02  7.41232E-03  2.94068E-05  1.11593E-05  9.60457E-06 -1.23948E-05  1.06266E+00 -1.41073E-04  2.74648E-05 -1.66273E-06  1.26252E-05  1.50000E+01
  2.04970E+01  2.03502E+01  2.01287E+01 -1.27567E-01  3.78049E-01 -4.89078E-02  9.19518E-02  2.81295E-05  2.30226E-05  4.92818E-06  1.97184E-03  1.06882E+00  8.29100E-04  2.35229E-05 -1.92947E-06  1.07518E-05  1.50000E+01
  2.04151E+01  2.03562E+01  2.00920E+01 -1.71555E-01  2.79329E-01 -3.02251E-02  7.20448E-03  3.73281E-05  3.25417E-05  2.92594E-06 -6.80811E-04  9.95306E-01 -1.60082E-03  3.23973E-05 -3.05867E-06  9.05061E-06  1.50000E+01
  2.04146E+01  2.03521E+01  2.00644E+01 -1.70196E-01  2.85695E-01 -2.11035E-02  4.59630E-02  3.70801E-05  5.38271E-05 -1.39097E-06 -2.94210E-04  1.00386E+00 -1.20336E-03  2.90170E-05 -3.48020E-06  5.64872E-06  1.50000E+01
  2.03937E+01  2.03569E+01  2.00779E+01 -1.82300E-01  2.53786E-01 -2.34033E-02 -3.64443E-02  3.32777E-05  1.31823E-05  4.59315E-06 -9.63705E-04  8.71161E-01 -1.17084E-03  3.18800E-05 -3.14478E-06  7.43008E-06  1.50000E+01
  2.04369E+01  2.03557E+01  2.01067E+01 -1.60546E-01  3.04007E-01 -3.73291E-02  7.90235E-02  4.01758E-05  3.48449E-05  4.62004E-06 -1.25377E-03  1.14858E+00 -1.51403E-03  3.42851E-05 -3.00512E-06  1.15013E-05  1.50000E+01
  2.04152E+01  2.03617E+01  2.01192E+01 -1.73130E-01  2.70201E-01 -3.89409E-02 -2.02968E-02  3.54072E-05  4.88369E-06  1.19345E-05 -1.13212E-03  9.37117E-01 -1.65159E-03  3.43847E-05 -2.15833E-06  1.26674E-05  1.50000E+01
  2.04361E+01  2.03621E+01  2.01341E+01 -1.62457E-01  2.92700E-01 -4.65586E-02 -1.26501E-02  3.20901E-05 -7.40355E-06  1.63552E-05 -3.76036E-04  1.00034E+00 -2.40969E-03  3.30417E-05 -1.62965E-06  1.42143E-05  1.50000E+01
  2.04367E+01  2.03507E+01  2.00783E+01 -1.58891E-01  3.11655E-01 -2.74995E-02  1.33195E-01  4.01170E-05  5.62394E-05 -9.00672E-07 -6.18328E-04  1.18208E+00 -1.45994E-03  3.11258E-05 -3.62453E-06  7.94613E-06  1.50000E+01
  2.04353E+01  2.03474E+01  2.00502E+01 -1.57907E-01  3.15518E-01 -1.73941E-02  1.73832E-02  3.20081E-05  2.89599E-05  1.41770E-06  5.06526E-04  1.09774E+00 -3.14551E-04  2.71949E-05 -3.65372E-06  5.16383E-06  1.50000E+01
  2.05164E+01  2.03391E+01  2.00940E+01 -1.14734E-01  4.16163E-01 -3.78188E-02  7.78278E-02  2.72571E-05  2.83111E-05  3.28464E-06 -1.30874E-03  1.12636E+00 -8.61135E-04  2.12556E-05 -2.66827E-06  8.82226E-06  1.50000E+01
  2.05160E+01  2.03355E+01  2.00695E+01 -1.13169E-01  4.20500E-01 -2.82664E-02  1.65112E-01  2.87042E-05  3.87856E-05  5.53468E-07 -1.17243E-03  1.18005E+00  4.08911E-04  2.05261E-05 -3.22909E-06  6.07681E-06  1.50000E+01
  2.05163E+01  2.03439E+01  2.01181E+01 -1.16135E-01  4.09196E-01 -4.70158E-02  3.76124E-02  2.52046E-05  1.20297E-05  7.70156E-06 -8.65336E-04  1.13818E+00 -1.88432E-03  2.24709E-05 -2.16288E-06  1.07201E-05  1.50000E+01
  2.04964E+01  2.03379E+01  2.00583E+01 -1.23644E-01  3.94392E-01 -2.36388E-02  9.54746E-02  2.67038E-05  2.60106E-05  2.13215E-06  8.96714E-04  1.13063E+00 -1.53075E-03  2.13731E-05 -3.37835E-06  5.47013E-06  1.50000E+01
  2.05153E+01  2.03330E+01  2.00443E+01 -1.11576E-01  4.22642E-01 -1.86803E-02  1.98817E-01  2.89512E-05  4.04061E-05  4.81306E-07  5.63192E-04  1.24954E+00 -7.81218E-04  2.03660E-05 -3.66095E-06  3.69124E-06  1.50000E+01
  2.04344E+01  2.03455E+01  2.00228E+01 -1.57355E-01  3.17646E-01 -7.57417E-03 -4.85492E-02  2.36872E-05 -1.43502E-05  3.10252E-06  5.62763E-04  1.06364E+00  1.23406E-04  2.54801E-05 -3.75805E-06  2.65493E-06  1.50000E+01
  2.04751E+01  2.03389E+01  2.00207E+01 -1.34299E-01  3.69598E-01 -8.27821E-03  3.37559E-02  2.64123E-05  1.49520E-05  1.70082E-06  2.73430E-04  1.17352E+00 -4.37969E-04  2.35072E-05 -3.90471E-06  2.52250E-06  1.50000E+01
  2.04546E+01  2.03419E+01  2.00084E+01 -1.45775E-01  3.43988E-01 -2.86651E-03 -2.53737E-04  2.45064E-05 -3.43302E-06  1.29469E-06  4.80425E-04  1.11969E+00  2.80957E-04  2.46945E-05 -3.91542E-06  1.28130E-06  1.50000E+01
  2.04151E+01  2.03683E+01  2.01456E+01 -1.74541E-01  2.58907E-01 -4.71944E-02  3.60120E-02  3.13036E-05 -1.31897E-05  1.70286E-05 -7.21050E-04  8.61697E-01 -1.94867E-03  3.29521E-05 -1.28306E-06  1.31292E-05  1.50000E+01
  2.04357E+01  2.03693E+01  2.01601E+01 -1.64197E-01  2.80192E-01 -5.48988E-02 -2.59881E-02  2.67149E-05 -2.77622E-05  2.24204E-05 -1.25704E-04  9.13487E-01 -2.52677E-03  3.13103E-05 -7.45539E-07  1.42340E-05  1.50000E+01
  2.08236E+01  2.03478E+01  1.96807E+01  4.83955E-03  7.95205E-01  1.31314E-01 -5.47960E-01 -6.87084E-06 -1.89344E-04 -1.25849E-04  3.55568E-03  2.50568E+00  1.65234E-03  2.77955E-05  4.59179E-06 -1.67384E-05  1.50000E+01
  2.08043E+01  2.03436E+01  1.96949E+01  2.73499E-03  7.68234E-01  1.23335E-01 -5.15318E-01 -1.19249E-05 -1.85832E-04 -1.18283E-04  3.19888E-03  2.41809E+00  1.29515E-03  2.69521E-05  3.81884E-06 -1.73762E-05  1.50000E+01
  2.08234E+01  2.03338E+01  1.97066E+01  1.91012E-02  8.08913E-01  1.24640E-01 -4.63080E-01 -4.80081E-06 -1.68621E-04 -1.04288E-04  3.31267E-03  2.54628E+00  1.38564E-03  2.71243E-05  3.04092E-06 -1.55395E-05  1.50000E+01
  2.08041E+01  2.03304E+01  1.97211E+01  1.57478E-02  7.81789E-01  1.16317E-01 -4.65957E-01 -6.37591E-06 -1.53361E-04 -9.16772E-05  2.97365E-03  2.45875E+00  1.07571E-03  2.64993E-05  2.35771E-06 -1.61872E-05  1.50000E+01
  2.08233E+01  2.03209E+01  1.97331E+01  3.17342E-02  8.21233E-01  1.16599E-01 -4.19869E-01  1.52800E-06 -1.27795E-04 -7.50372E-05  3.07427E-03  2.58272E+00  1.12480E-03  2.69075E-05  1.62894E-06 -1.44499E-05  1.50000E+01
  2.08820E+01  2.03655E+01  1.96399E+01  1.80367E-03  8.76280E-01  1.56019E-01 -5.14105E-01  1.88742E-05 -1.49208E-04 -1.19584E-04  3.91456E-03  2.76860E+00  3.00090E-03  3.28079E-05  6.69679E-06 -1.37388E-05  1.50000E+01
  2.08625E+01  2.03587E+01  1.96531E+01  4.52069E-03  8.49610E-01  1.47907E-01 -5.78511E-01  7.81801E-06 -1.86066E-04 -1.37290E-04  3.93448E-03  2.68237E+00  2.59613E-03  3.05075E-05  6.08764E-06 -1.49316E-05  1.50000E+01
  2.08817E+01  2.03492E+01  1.96649E+01  2.06363E-02  8.90744E-01  1.51222E-01 -5.27710E-01  1.80414E-05 -1.35644E-04 -1.01596E-04  3.74439E-03  2.81287E+00  2.58933E-03  3.25447E-05  5.26163E-06 -1.35061E-05  1.50000E+01
  2.05160E+01  2.03499E+01  2.01425E+01 -1.17702E-01  4.00091E-01 -5.56344E-02  3.26868E-02  2.37779E-05 -1.62633E-06  1.21189E-05  1.04319E-03  1.16775E+00 -4.80671E-04  2.40051E-05 -1.73426E-06  1.19141E-05  1.50000E+01
  2.08814E+01  2.03340E+01  1.96905E+01  3.75657E-02  9.03837E-01  1.44586E-01 -4.34868E-01  1.91070E-05 -1.00696E-04 -7.20825E-05  3.56665E-03  2.85281E+00  2.18358E-03  3.18029E-05  3.62390E-06 -1.26456E-05  1.50000E+01
  2.09009E+01  2.03401E+01  1.96768E+01  3.65253E-02  9.30550E-01  1.54121E-01 -4.03299E-01  2.93010E-05 -4.25191E-05 -4.14002E-05  3.59206E-03  2.93934E+00  2.50728E-03  3.51087E-05  4.40244E-06 -1.21630E-05  1.50000E+01
  2.05346E+01  2.03282E+01  2.00307E+01 -9.91799E-02  4.51525E-01 -1.35327E-02  1.34190E-01  2.46259E-05  2.10192E-05  1.71181E-06  6.73896E-04  1.35210E+00 -5.05496E-04  1.97450E-05 -3.84353E-06  2.80796E-06  1.50000E+01
  2.05149E+01  2.03315E+01  2.00184E+01 -1.10790E-01  4.23725E-01 -8.40633E-03  1.81493E-01  3.17953E-05  5.61473E-05 -3.37353E-07  7.13178E-04  1.28678E+00 -7.48551E-04  2.05649E-05 -3.90601E-06  1.62880E-06  1.50000E+01
  2.04564E+01  2.03628E+01  2.01492E+01 -1.52178E-01  3.13698E-01 -5.37302E-02 -2.04321E-02  2.68691E-05 -1.90106E-05  1.96984E-05 -3.10537E-04  1.01567E+00 -2.67316E-03  3.02618E-05 -1.06969E-06  1.45395E-05  1.50000E+01
  2.04560E+01  2.03704E+01  2.01746E+01 -1.54237E-01  3.00705E-01 -6.19574E-02 -9.38439E-02  2.21159E-05 -4.12011E-05  2.85198E-05  1.26293E-04  9.54449E-01 -2.49994E-03  2.94671E-05 -1.07566E-07  1.53013E-05  1.50000E+01
  2.04763E+01  2.03635E+01  2.01638E+01 -1.42251E-01  3.34379E-01 -6.02237E-02 -7.00989E-02  2.15632E-05 -3.62621E-05  2.67159E-05 -6.11863E-05  1.03629E+00 -1.56095E-03  2.84096E-05 -4.09879E-07  1.57086E-05  1.50000E+01
  2.04340E+01  2.03451E+01  1.99958E+01 -1.57215E-01  3.17987E-01  2.08306E-03 -4.25754E-02  2.24302E-05 -1.90748E-05 -4.97691E-07  6.61774E-04  1.04226E+00  5.29277E-04  2.49291E-05 -3.78199E-06 -4.18236E-07  1.50000E+01
  2.04746E+01  2.03385E+01  1.99940E+01 -1.34329E-01  3.69640E-01  2.11957E-03  3.64206E-02  2.61507E-05  1.47677E-05 -2.00845E-07  3.67375E-04  1.17259E+00  9.91947E-05  2.33104E-05 -3.94264E-06 -4.18936E-07  1.50000E+01
  2.04542E+01  2.03422E+01  1.99816E+01 -1.45987E-01  3.43302E-01  7.12748E-03  6.93216E-03  2.42674E-05 -2.87767E-06 -2.08388E-06  5.08077E-04  1.10326E+00  5.52992E-04  2.43967E-05 -3.83218E-06 -2.18343E-06  1.50000E+01
  2.08423E+01  2.03004E+01  1.97724E+01  5.80642E-02  8.69926E-01  1.06339E-01 -3.40781E-01  1.31036E-05 -7.35718E-05 -4.11861E-05  2.86989E-03  2.73376E+00  9.23668E-04  2.68033E-05 -1.65178E-07 -1.17173E-05  1.50000E+01
  2.08616E+01  2.03032E+01  1.97577E+01  6.26371E-02  8.98091E-01  1.16212E-01 -3.75302E-01  1.57071E-05 -7.68662E-05 -4.50421E-05  3.05416E-03  2.82708E+00  1.18394E-03  2.85012E-05  4.38499E-07 -1.15614E-05  1.50000E+01
  2.08424E+01  2.03118E+01  1.97453E+01  4.73552E-02  8.60035E-01  1.16585E-01 -3.96890E-01  9.10623E-06 -1.01162E-04 -5.87330E-05  3.09496E-03  2.70530E+00  1.16528E-03  2.74603E-05  1.05313E-06 -1.29702E-05  1.50000E+01
  2.05355E+01  2.03376E+01  2.01066E+01 -1.03815E-01  4.40249E-01 -4.37881E-02  1.36081E-01  2.92286E-05  3.29462E-05  2.18346E-06 -4.13416E-04  1.26405E+00 -1.30590E-03  2.19568E-05 -2.74905E-06  9.17377E-06  1.50000E+01
  2.01275E+01  2.03875E+01  2.01891E+01 -1.78971E-01 -4.04053E-01  4.48524E-02 -4.86184E-01  1.13268E-04 -1.30569E-04 -3.50336E-05 -2.49667E-02 -1.32266E+00  2.68414E-02  4.83417E-05  2.07516E-05  3.48180E-07  1.50000E+01
  2.01108E+01  2.03747E+01  2.02011E+01 -1.09661E-01 -5.26634E-01  2.15412E-02 -1.11984E+00  1.84026E-04 -1.74732E-04 -8.01312E-05  4.00943E-03 -1.70056E+00  3.54851E-03  5.12765E-05  3.01216E-05  2.75828E-06  1.50000E+01
  2.01308E+01  2.03816E+01  2.02136E+01 -1.25491E-01 -4.85603E-01  2.57006E-02 -6.45795E-01  1.47266E-04 -1.41056E-04 -5.55272E-05 -4.40880E-03 -1.57615E+00  1.06824E-02  5.40435E-05  2.92288E-05  3.49606E-06  1.50000E+01
  2.09004E+01  2.03112E+01  1.97289E+01  6.80286E-02  9.53626E-01  1.37120E-01 -1.88765E-01  3.33326E-05  2.66542E-07 -1.10129E-05  3.28575E-03  3.00980E+00  1.78904E-03  3.43390E-05  1.44128E-06 -1.05993E-05  1.50000E+01
  2.09199E+01  2.03165E+01  1.97149E+01  6.86857E-02  9.80457E-01  1.47892E-01 -7.10510E-02  1.93152E-05  1.88557E-05  4.05756E-06  1.79850E-02  1.61242E+00  1.38862E-02  1.78356E-05  1.16606E-06 -5.35408E-06  1.50000E+01
  2.09007E+01  2.03251E+01  1.97026E+01  5.32064E-02  9.42731E-01  1.46455E-01 -3.79824E-01  3.08134E-05 -1.35237E-05 -2.00319E-05  3.44342E-03  2.97667E+00  2.12991E-03  3.46384E-05  2.87112E-06 -1.14917E-05  1.50000E+01
  2.08426E+01  2.03244E+01  1.97186E+01  3.50721E-02  8.48851E-01  1.25641E-01 -4.40163E-01  3.32298E-06 -1.41704E-04 -8.63489E-05  3.32908E-03  2.67246E+00  1.45133E-03  2.77942E-05  2.43388E-06 -1.41640E-05  1.50000E+01
  2.08618E+01  2.03154E+01  1.97308E+01  5.06812E-02  8.87936E-01  1.26281E-01 -3.73887E-01  1.23960E-05 -1.04513E-04 -6.35880E-05  3.27346E-03  2.79713E+00  1.48250E-03  2.88977E-05  1.69982E-06 -1.25531E-05  1.50000E+01
  2.04337E+01  2.03460E+01  1.99692E+01 -1.57583E-01  3.16314E-01  1.15424E-02 -1.08994E-02  2.45195E-05 -4.60675E-06 -3.13172E-06  6.57515E-04  1.02268E+00  8.01166E-04  2.49732E-05 -3.59879E-06 -3.13253E-06  1.50000E+01
  2.04140E+01  2.03495E+01  2.00370E+01 -1.69194E-01  2.89473E-01 -1.18080E-02 -2.19985E-02  2.93539E-05  1.36891E-05  1.71472E-06  2.25581E-04  9.86472E-01 -3.84635E-04  2.71530E-05 -3.64355E-06  3.55128E-06  1.50000E+01
  2.04135E+01  2.03482E+01  2.00099E+01 -1.68659E-01  2.91059E-01 -2.62653E-03 -5.93073E-02  2.40431E-05 -1.63557E-05  1.24113E-06  4.75865E-04  9.69424E-01  2.16606E-04  2.61946E-05 -3.72219E-06  9.54330E-07  1.50000E+01
  2.08628E+01  2.03751E+01  1.96283E+01 -1.45366E-02  8.34061E-01  1.51708E-01 -5.34713E-01  9.77428E-06 -1.99346E-04 -1.57601E-04  4.15364E-03  2.63487E+00  3.01610E-03  3.01633E-05  7.61503E-06 -1.51889E-05  1.50000E+01
  2.08040E+01  2.03182E+01  1.97477E+01  2.72153E-02  7.93942E-01  1.08035E-01 -4.13934E-01  8.96330E-07 -1.14220E-04 -6.52392E-05  2.75692E-03  2.49376E+00  8.76655E-04  2.58378E-05  9.69798E-07 -1.47381E-05  1.50000E+01
  2.08231E+01  2.03091E+01  1.97600E+01  4.28092E-02  8.32204E-01  1.07335E-01 -3.91106E-01  7.38118E-06 -9.33968E-05 -5.20807E-05  2.84219E-03  2.61405E+00  8.95583E-04  2.61497E-05  2.85200E-07 -1.29658E-05  1.50000E+01
  2.03934E+01  2.03535E+01  2.00508E+01 -1.81102E-01  2.59053E-01 -1.50849E-02 -2.05943E-02  3.19184E-05  1.80266E-05  2.15396E-06 -5.98235E-04  8.81043E-01 -7.73310E-04  2.93155E-05 -3.48590E-06  4.35220E-06  1.50000E+01
  2.03723E+01  2.03551E+01  2.00373E+01 -1.91559E-01  2.31289E-01 -9.68576E-03 -6.99339E-02  2.78158E-05 -1.80734E-05  4.08025E-06 -1.13865E-03  7.68818E-01 -3.64547E-04  3.00381E-05 -3.47687E-06  3.11654E-06  1.50000E+01
  2.03726E+01  2.03577E+01  2.00640E+01 -1.92592E-01  2.27400E-01 -1.70554E-02 -7.18485E-02  3.07681E-05 -9.64463E-06  6.59589E-06 -1.51615E-03  7.60882E-01 -5.54279E-04  3.23859E-05 -3.21575E-06  6.17022E-06  1.50000E+01
  2.05353E+01  2.03333E+01  2.00816E+01 -1.02120E-01  4.45967E-01 -3.39269E-02  1.79568E-01  3.17078E-05  5.13643E-05 -1.50891E-06 -4.60353E-04  1.28216E+00 -7.13246E-04  2.05993E-05 -3.22204E-06  6.77466E-06  1.50000E+01
  2.05350E+01  2.03301E+01  2.00564E+01 -1.00485E-01  4.49647E-01 -2.37985E-02  2.55901E-01  2.66739E-05  2.97682E-05  1.46593E-06 -1.08584E-04  1.31956E+00 -1.58797E-04  1.98869E-05 -3.55422E-06  4.92245E-06  1.50000E+01
  2.05540E+01  2.03235E+01  2.00172E+01 -8.66677E-02  4.80276E-01 -8.08489E-03  9.08443E-02  2.43163E-05  1.92265E-05  1.36158E-06  8.03302E-04  1.44675E+00 -3.09741E-04  1.94189E-05 -4.04539E-06  2.02621E-06  1.50000E+01
  2.05344E+01  2.03274E+01  2.00047E+01 -9.86358E-02  4.51955E-01 -2.90085E-03  5.98897E-02  2.59819E-05  2.75965E-05  1.54859E-07  7.44169E-04  1.37081E+00 -5.12270E-04  1.98230E-05 -3.99868E-06  3.76374E-07  1.50000E+01
  2.08620E+01  2.03288E+01  1.97044E+01  3.70574E-02  8.76497E-01  1.35028E-01 -4.70049E-01  1.02078E-05 -1.29275E-04 -8.39943E-05  3.48902E-03  2.76333E+00  1.80944E-03  2.94202E-05  3.13618E-06 -1.35791E-05  1.50000E+01
  2.08622E+01  2.03432E+01  1.96785E+01  2.16955E-02  8.63741E-01  1.42293E-01 -5.02219E-01  8.74206E-06 -1.53971E-04 -1.07348E-04  3.71650E-03  2.72549E+00  2.18863E-03  2.96540E-05  4.66036E-06 -1.44136E-05  1.50000E+01
  2.07850E+01  2.03403E+01  1.97094E+01 -5.88284E-04  7.41845E-01  1.15807E-01 -5.18983E-01 -1.39984E-05 -1.73271E-04 -1.06451E-04  2.80861E-03  2.33317E+00  1.04903E-03  2.60776E-05  3.10972E-06 -1.77901E-05  1.50000E+01
  2.03942E+01  2.03675E+01  2.01312E+01 -1.84959E-01  2.36574E-01 -3.92214E-02 -6.28459E-03  3.65678E-05  1.55013E-05  8.00312E-06 -1.52650E-03  7.89796E-01 -1.12240E-03  3.42678E-05 -1.69682E-06  1.19778E-05  1.50000E+01
  2.03735E+01  2.03732E+01  2.01430E+01 -1.95968E-01  2.04692E-01 -3.84691E-02 -4.53921E-02  3.77622E-05  2.20270E-05  4.89185E-06 -2.27171E-03  6.67478E-01  4.75569E-04  3.56756E-05 -1.58472E-06  1.08854E-05  1.50000E+01
  2.03944E+01  2.03744E+01  2.01570E+01 -1.86012E-01  2.25326E-01 -4.67147E-02 -3.80687E-02  3.28511E-05 -9.67127E-06  1.59359E-05 -1.37714E-03  7.37311E-01 -9.19981E-04  3.40983E-05 -9.15766E-07  1.27876E-05  1.50000E+01
  2.08812E+01  2.03198E+01  1.97166E+01  5.26591E-02  9.15602E-01  1.36290E-01 -3.76194E-01  2.08734E-05 -7.80183E-05 -5.33399E-05  3.37398E-03  2.88819E+00  1.81455E-03  3.16556E-05  2.14429E-06 -1.18094E-05  1.50000E+01
  2.08045E+01  2.03579E+01  1.96691E+01 -1.18935E-02  7.53245E-01  1.28958E-01 -5.92079E-01 -1.54319E-05 -2.10384E-04 -1.42983E-04  3.43710E-03  2.37317E+00  1.52675E-03  2.72179E-05  5.37328E-06 -1.83912E-05  1.50000E+01
  2.07852E+01  2.03538E+01  1.96834E+01 -1.40100E-02  7.26982E-01  1.21802E-01 -5.72449E-01 -1.96672E-05 -2.03657E-04 -1.32828E-04  3.00979E-03  2.28817E+00  1.23473E-03  2.65290E-05  4.49776E-06 -1.87775E-05  1.50000E+01
  2.04761E+01  2.03715E+01  2.01888E+01 -1.44705E-01  3.20954E-01 -6.84160E-02 -7.95448E-02  1.83231E-05 -5.17403E-05  3.48074E-05  3.54593E-04  1.00175E+00 -2.17507E-03  2.84126E-05  6.30894E-07  1.69262E-05  1.50000E+01
  2.04961E+01  2.03642E+01  2.01781E+01 -1.32607E-01  3.55342E-01 -6.65803E-02 -8.92091E-02  1.78136E-05 -4.58984E-05  3.19209E-05  4.74090E-04  1.08724E+00 -1.45898E-03  2.72885E-05  2.31817E-07  1.70315E-05  1.50000E+01
  2.04559E+01  2.03788E+01  2.01996E+01 -1.56395E-01  2.85853E-01 -6.94533E-02 -1.59383E-01  1.80182E-05 -6.41171E-05  4.09719E-05  2.81856E-04  9.06256E-01 -2.72796E-03  2.95714E-05  1.27123E-06  1.74929E-05  1.50000E+01
  2.04743E+01  2.03395E+01  1.99676E+01 -1.34882E-01  3.68025E-01  1.23942E-02  4.57370E-02  2.58469E-05  1.09831E-05 -2.60219E-06  1.38482E-04  1.16291E+00  2.95127E-04  2.36309E-05 -3.76289E-06 -3.55999E-06  1.50000E+01
  2.08430E+01  2.03528E+01  1.96667E+01  5.49748E-03  8.22459E-01  1.39584E-01 -5.77955E-01 -5.92610E-07 -1.92542E-04 -1.34396E-04  3.82200E-03  2.59460E+00  2.11734E-03  2.86722E-05  5.33263E-06 -1.57855E-05  1.50000E+01
  2.08433E+01  2.03685E+01  1.96415E+01 -1.19406E-02  8.07160E-01  1.44167E-01 -6.15589E-01 -5.13809E-07 -2.13972E-04 -1.59678E-04  4.07576E-03  2.54775E+00  2.49673E-03  2.92037E-05  6.95028E-06 -1.65527E-05  1.50000E+01
  2.08238E+01  2.03627E+01  1.96551E+01 -1.11209E-02  7.80089E-01  1.36488E-01 -5.85403E-01 -8.53080E-06 -2.12574E-04 -1.50969E-04  3.82430E-03  2.46039E+00  1.97210E-03  2.80269E-05  6.02535E-06 -1.73273E-05  1.50000E+01
  2.07659E+01  2.03505E+01  1.96979E+01 -1.72170E-02  7.01521E-01  1.15138E-01 -5.03258E-01 -1.96297E-05 -1.84900E-04 -1.17294E-04  2.60360E-03  2.20663E+00  1.07050E-03  2.60087E-05  3.82570E-06 -1.92972E-05  1.50000E+01
  2.05549E+01  2.03362E+01  2.01198E+01 -9.29723E-02  4.64468E-01 -4.97388E-02  1.82300E-01  2.62544E-05  1.67577E-05  6.20163E-06  2.33586E-04  1.37055E+00 -1.33995E-03  2.22426E-05 -2.58394E-06  1.01772E-05  1.50000E+01
  2.05355E+01  2.03430E+01  2.01314E+01 -1.05612E-01  4.32491E-01 -5.31557E-02  4.12212E-02  2.25446E-05 -4.40396E-06  1.26779E-05  2.80100E-05  1.26361E+00 -1.61637E-03  2.32430E-05 -1.99846E-06  1.19130E-05  1.50000E+01
  2.03941E+01  2.03616E+01  2.01048E+01 -1.83659E-01  2.46209E-01 -3.14736E-02 -4.78376E-02  3.59044E-05  1.12679E-05  8.40699E-06 -1.29135E-03  8.39161E-01 -1.32986E-03  3.43598E-05 -2.38634E-06  1.11748E-05  1.50000E+01
  2.03729E+01  2.03617E+01  2.00907E+01 -1.93798E-01  2.21445E-01 -2.43088E-02 -8.65118E-02  3.39005E-05  1.65808E-06  7.87059E-06 -1.83628E-03  7.39948E-01 -5.15615E-04  3.41197E-05 -2.64142E-06  9.01110E-06  1.50000E+01
  2.01155E+01  2.03667E+01  2.02248E+01 -5.74666E-02 -5.85023E-01  0.00000E+00 -9.25466E-01  9.84644E-05 -8.33206E-05 -4.22581E-05 -4.64377E+00  2.77603E+00 -5.41509E+00  2.83128E-05  1.72617E-05  3.56977E-06  1.50000E+01
  2.09204E+01  2.03470E+01  1.96636E+01  3.39058E-02  9.56418E-01  1.63461E-01 -1.44298E-01  1.65049E-05 -1.89649E-05 -2.07753E-05  1.53455E-02  1.57599E+00  1.49884E-02  1.81607E-05  2.90948E-06 -6.33534E-06  1.50000E+01
  2.09012E+01  2.03561E+01  1.96517E+01  1.79172E-02  9.17043E-01  1.59924E-01 -3.80716E-01  2.71858E-05 -8.85151E-05 -7.61012E-05  3.72205E-03  2.89787E+00  2.91333E-03  3.56210E-05  6.22210E-06 -1.30345E-05  1.50000E+01
  2.07853E+01  2.03683E+01  1.96579E+01 -2.90416E-02  7.10629E-01  1.26368E-01 -6.12170E-01 -2.26473E-05 -2.24168E-04 -1.55847E-04  3.22332E-03  2.23882E+00  1.42946E-03  2.70285E-05  5.89134E-06 -1.96217E-05  1.50000E+01
  2.07660E+01  2.03644E+01  1.96722E+01 -3.10703E-02  6.85284E-01  1.20107E-01 -5.62016E-01 -2.56922E-05 -2.14526E-04 -1.44045E-04  2.77500E-03  2.15715E+00  1.23556E-03  2.65686E-05  5.16958E-06 -2.02142E-05  1.50000E+01
  2.04133E+01  2.03484E+01  1.99831E+01 -1.68643E-01  2.90449E-01  6.36624E-03 -5.17460E-02  2.43831E-05 -1.10148E-05 -1.83845E-06  6.15741E-04  9.50962E-01  6.43030E-04  2.58343E-05 -3.66485E-06 -1.61645E-06  1.50000E+01
  2.05355E+01  2.03496E+01  2.01563E+01 -1.07819E-01  4.22756E-01 -6.19898E-02  4.67411E-02  1.95765E-05 -2.19057E-05  1.96928E-05  1.00028E-03  1.25970E+00 -1.16393E-03  2.41583E-05 -1.29003E-06  1.34758E-05  1.50000E+01
  2.04151E+01  2.03758E+01  2.01712E+01 -1.75831E-01  2.46021E-01 -5.48962E-02 -9.85666E-02  2.74343E-05 -3.42708E-05  2.59175E-05 -5.30976E-04  7.99859E-01 -2.01250E-03  3.26644E-05 -1.77816E-07  1.46751E-05  1.50000E+01
  2.04356E+01  2.03772E+01  2.01854E+01 -1.65873E-01  2.66189E-01 -6.25486E-02 -1.13201E-01  2.28318E-05 -5.01858E-05  3.33469E-05  1.65015E-05  8.54420E-01 -2.60832E-03  3.13954E-05  4.87235E-07  1.61693E-05  1.50000E+01
  2.01462E+01  2.03954E+01  2.01761E+01 -2.36067E-01 -2.41047E-01  5.50044E-02 -3.07099E-01  7.38023E-05 -9.92296E-05 -3.07506E-06 -5.38643E-02 -7.58948E-01  4.13452E-02  4.74973E-05  1.15376E-05  1.58829E-06  1.50000E+01
  2.01253E+01  2.03907E+01  2.01641E+01 -2.22946E-01 -3.08183E-01  5.31938E-02 -2.34722E-01  8.11381E-05 -1.05502E-04 -1.10287E-05 -4.67805E-02 -9.84490E-01  3.63050E-02  4.69988E-05  1.39523E-05  4.05165E-07  1.50000E+01
  2.08436E+01  2.03850E+01  1.96168E+01 -3.12453E-02  7.90393E-01  1.46961E-01 -6.08315E-01 -4.13918E-08 -2.43667E-04 -1.92720E-04  4.33295E-03  2.49656E+00  2.90937E-03  2.91007E-05  8.35177E-06 -1.66826E-05  1.50000E+01
  2.03513E+01  2.03568E+01  2.00242E+01 -2.01316E-01  2.03722E-01 -5.14818E-03 -1.07514E-01  2.62516E-05 -4.25805E-05  3.87081E-06 -1.70824E-03  6.62625E-01 -6.41722E-06  3.12060E-05 -3.37831E-06  2.06604E-06  1.50000E+01
  2.03515E+01  2.03587E+01  2.00506E+01 -2.02139E-01  2.01376E-01 -1.14853E-02 -1.06739E-01  2.93452E-05 -3.07705E-05  7.51224E-06 -2.01693E-03  6.58106E-01  1.05978E-04  3.27692E-05 -3.15859E-06  4.78416E-06  1.50000E+01
  2.05547E+01  2.03313E+01  2.00945E+01 -9.09599E-02  4.71201E-01 -3.97690E-02  2.23736E-01  3.18435E-05  4.83051E-05 -7.19694E-07  8.33190E-05  1.38464E+00 -9.54480E-04  2.07302E-05 -3.07352E-06  8.01301E-06  1.50000E+01
  2.05545E+01  2.03275E+01  2.00690E+01 -8.91579E-02  4.76026E-01 -2.94060E-02  1.00454E-01  2.74844E-05  3.19007E-05  1.85067E-06  2.03900E-04  1.40505E+00 -5.36869E-04  1.99709E-05 -3.44856E-06  6.43408E-06  1.50000E+01
  2.03737E+01  2.03806E+01  2.01685E+01 -1.96612E-01  1.94585E-01 -4.56260E-02 -1.20038E-01  3.27566E-05 -1.86051E-05  1.93438E-05 -2.40581E-03  6.26561E-01  9.14829E-04  3.54624E-05 -4.11456E-07  1.32306E-05  1.50000E+01
  2.03531E+01  2.03867E+01  2.01800E+01 -2.05885E-01  1.70976E-01 -4.50083E-02 -1.40887E-01  3.38100E-05 -2.05153E-05  1.94006E-05 -3.14402E-03  5.42174E-01  2.24172E-03  3.65647E-05 -4.31980E-07  1.23384E-05  1.50000E+01
  2.03739E+01  2.03887E+01  2.01937E+01 -1.96793E-01  1.83366E-01 -5.29144E-02 -1.46408E-01  3.04272E-05 -3.13794E-05  2.57242E-05 -2.46272E-03  5.85132E-01  8.96331E-04  3.49128E-05  5.11434E-07  1.44367E-05  1.50000E+01
  2.07468E+01  2.03611E+01  1.96867E+01 -3.40477E-02  6.60878E-01  1.14350E-01 -5.38672E-01 -2.55371E-05 -1.98712E-04 -1.29728E-04  2.39311E-03  2.07932E+00  1.17081E-03  2.60904E-05  4.53437E-06 -2.06286E-05  1.50000E+01
  2.03930E+01  2.03516E+01  2.00238E+01 -1.80232E-01  2.61954E-01 -6.68112E-03  1.25013E-02  2.81849E-05  1.61364E-06  1.85035E-06 -2.01546E-04  8.77048E-01 -2.21483E-04  2.78494E-05 -3.64381E-06  2.04186E-06  1.50000E+01
  2.03927E+01  2.03510E+01  1.99970E+01 -1.79843E-01  2.62516E-01  1.63670E-03  2.93575E-02  2.71898E-05 -8.48878E-07 -4.03974E-07  8.42232E-05  8.65757E-01  2.78210E-04  2.72067E-05 -3.65866E-06 -3.36271E-07  1.50000E+01
  2.05543E+01  2.03249E+01  2.00432E+01 -8.76547E-02  4.79016E-01 -1.88220E-02  1.10200E-01  2.37219E-05  1.61201E-05  3.21947E-06  4.70457E-04  1.42835E+00 -2.45821E-04  1.95584E-05 -3.78795E-06  4.66961E-06  1.50000E+01
  2.08241E+01  2.03786E+01  1.96301E+01 -2.88593E-02  7.63499E-01  1.40022E-01 -6.40843E-01 -1.00991E-05 -2.42717E-04 -1.82930E-04  4.09483E-03  2.40943E+00  2.31496E-03  2.86707E-05  7.43974E-06 -1.78193E-05  1.50000E+01
  2.08047E+01  2.03730E+01  1.96438E+01 -2.82100E-02  7.36791E-01  1.33067E-01 -6.44556E-01 -1.76033E-05 -2.34541E-04 -1.69242E-04  3.70121E-03  2.32344E+00  1.80412E-03  2.75605E-05  6.56722E-06 -1.86139E-05  1.50000E+01
  2.03732E+01  2.03669E+01  2.01170E+01 -1.94984E-01  2.13747E-01 -3.14172E-02 -5.23656E-02  3.87223E-05  3.06075E-05  2.63809E-06 -2.08308E-03  7.06972E-01 -1.46778E-04  3.48208E-05 -2.10382E-06  1.01116E-05  1.50000E+01
  2.03522E+01  2.03665E+01  2.01032E+01 -2.04285E-01  1.91845E-01 -2.41775E-02 -9.86831E-02  3.68999E-05  1.61942E-05  4.61565E-06 -2.62474E-03  6.23819E-01  1.03876E-03  3.49942E-05 -2.32204E-06  8.39055E-06  1.50000E+01
  2.05928E+01  2.03148E+01  1.99899E+01 -6.17790E-02  5.35951E-01  3.54896E-03  2.81594E-01  3.66706E-05  7.32943E-05  9.18312E-07  1.12374E-03  1.63131E+00  3.38470E-05  1.91366E-05 -4.30608E-06 -1.09844E-06  1.50000E+01
  2.05733E+01  2.03196E+01  1.99772E+01 -7.41862E-02  5.07411E-01  8.85963E-03  1.58322E-01  3.17901E-05  5.01876E-05 -4.66790E-07  1.08855E-03  1.54829E+00 -8.16842E-06  1.97507E-05 -4.20929E-06 -2.90692E-06  1.50000E+01
  2.05734E+01  2.03191E+01  2.00036E+01 -7.41604E-02  5.08480E-01 -2.36557E-03  1.77463E-01  3.03551E-05  4.53717E-05  7.38277E-08  9.77319E-04  1.54022E+00 -1.25211E-04  1.94933E-05 -4.27055E-06  4.26036E-07  1.50000E+01
  2.08243E+01  2.03953E+01  1.96055E+01 -4.84518E-02  7.45386E-01  1.41791E-01 -6.45926E-01 -9.81140E-06 -2.72754E-04 -2.16594E-04  4.36971E-03  2.35394E+00  2.68274E-03  2.87907E-05  8.60933E-06 -1.77005E-05  1.50000E+01
  2.05550E+01  2.03495E+01  2.01702E+01 -9.82375E-02  4.45110E-01 -6.79750E-02  1.08621E-01  1.56878E-05 -3.75082E-05  2.63211E-05  1.18315E-03  1.33924E+00 -1.56534E-03  2.40261E-05 -6.94881E-07  1.50466E-05  1.50000E+01
  2.05549E+01  2.03423E+01  2.01450E+01 -9.53113E-02  4.55774E-01 -5.91641E-02  9.50056E-02  1.91918E-05 -2.06216E-05  1.88105E-05  6.25574E-04  1.35752E+00 -1.60918E-03  2.36062E-05 -1.57969E-06  1.36081E-05  1.50000E+01
  2.03518E+01  2.03620E+01  2.00770E+01 -2.03197E-01  1.97292E-01 -1.78149E-02 -1.14298E-01  3.26584E-05 -1.44304E-05  8.86170E-06 -2.35668E-03  6.44847E-01  4.50255E-04  3.41885E-05 -2.76983E-06  7.19573E-06  1.50000E+01
  2.03946E+01  2.03909E+01  2.02075E+01 -1.87361E-01  1.98312E-01 -6.09495E-02 -1.57910E-01  2.54252E-05 -5.37158E-05  3.56131E-05 -1.57270E-03  6.35283E-01 -7.53480E-04  3.33092E-05  1.08659E-06  1.54263E-05  1.50000E+01
  2.04151E+01  2.03932E+01  2.02213E+01 -1.78099E-01  2.14593E-01 -6.85587E-02 -2.08065E-01  2.06587E-05 -7.00599E-05  4.40130E-05 -7.25920E-04  6.87538E-01 -2.17477E-03  3.15700E-05  1.72483E-06  1.63448E-05  1.50000E+01
  2.04151E+01  2.03841E+01  2.01964E+01 -1.77039E-01  2.31374E-01 -6.20573E-02 -1.77665E-01  2.35215E-05 -5.75829E-05  3.80365E-05 -6.70734E-04  7.44853E-01 -2.00187E-03  3.25788E-05  1.24993E-06  1.71852E-05  1.50000E+01
  2.01048E+01  2.03855E+01  2.01520E+01 -2.04264E-01 -3.79470E-01  4.69519E-02 -3.29904E-01  9.82020E-05 -1.18430E-04 -2.01113E-05 -3.56473E-02 -1.21174E+00  2.73766E-02  4.97698E-05  1.78775E-05  9.27353E-07  1.50000E+01
  2.00871E+01  2.03748E+01  2.01645E+01 -1.37892E-01 -5.15235E-01  3.01834E-02 -4.02812E-01  1.64686E-04 -1.82749E-04 -6.70435E-05 -8.64571E-04 -1.64236E+00  7.30366E-03  5.18291E-05  2.83784E-05 -1.34380E-06  1.50000E+01