 TITLE="3D TRIANGULAR SURFACE DATA"
VARIABLES="X","Y","Z","U","V","W","P", "Fex", "Fey", "Fez","Finx","Finy","Finz","WSSx","WSSy","WSSz","AMForce"
 ZONE T="unstruc"N=        1757 E=        3355 F=FEPOINT  ET=TRIANGLE
  2.03311E+01  2.01498E+01  2.00977E+01  2.87057E-01 -1.27291E+00  7.88571E-04  1.18421E+00 -5.84306E-04  5.58511E-04  1.43397E-04  3.20010E-03 -5.26531E+00  4.29233E-04  3.00502E-05  3.62557E-05 -3.33135E-06  1.50000E+01
  2.03461E+01  2.01673E+01  2.00978E+01  2.95074E-01 -1.27721E+00  3.36758E-04  1.18149E+00 -2.74293E-04  2.61333E-04  6.56481E-05  8.49309E-04 -2.47747E+00 -5.10289E-04  1.41609E-05  1.71432E-05 -1.59844E-06  1.50000E+01
  2.03412E+01  2.01668E+01  2.00766E+01  2.94411E-01 -1.27353E+00  2.92230E-04  1.15988E+00 -4.07683E-04  3.89842E-04  7.56511E-05  2.25219E-03 -3.65060E+00 -8.27416E-04  2.06762E-05  2.46784E-05 -2.05839E-06  1.50000E+01
  2.03322E+01  2.01409E+01  2.01288E+01  2.83860E-01 -1.27708E+00  9.35418E-04  1.16839E+00 -4.89974E-04  4.66272E-04  1.57120E-04  2.32646E-03 -4.45532E+00  3.37566E-05  2.60398E-05  3.20829E-05 -3.11384E-06  1.50000E+01
  2.03455E+01  2.01601E+01  2.01190E+01  2.92738E-01 -1.27978E+00  6.45752E-04  1.17856E+00 -4.06020E-04  3.84271E-04  1.19369E-04  1.75072E-03 -3.64582E+00  5.54917E-04  2.11286E-05  2.60535E-05 -2.65188E-06  1.50000E+01
  2.03576E+01  2.01774E+01  2.01100E+01  2.99925E-01 -1.28129E+00  1.83319E-04  1.18335E+00 -3.48709E-04  3.31217E-04  9.27487E-05  1.49893E-03 -3.14154E+00 -2.70685E-04  1.80894E-05  2.21269E-05 -2.22940E-06  1.50000E+01
  2.03553E+01  2.01812E+01  2.00861E+01  3.00665E-01 -1.27771E+00  2.19224E-04  1.17300E+00 -3.49909E-04  3.34358E-04  7.15980E-05  1.71966E-03 -3.15133E+00  2.99593E-04  1.77761E-05  2.13187E-05 -1.91246E-06  1.50000E+01
  2.03378E+01  2.01677E+01  2.00496E+01  2.94260E-01 -1.27062E+00  3.23058E-04  1.17107E+00 -4.50868E-04  4.32947E-04  5.49767E-05  2.13230E-03 -3.96813E+00 -2.14466E-05  2.21244E-05  2.59105E-05 -1.54566E-06  1.50000E+01
  2.03256E+01  2.01508E+01  2.00662E+01  2.86754E-01 -1.26830E+00  6.86987E-04  1.15440E+00 -4.96376E-04  4.78027E-04  8.40620E-05  2.26282E-03 -4.46624E+00  5.17176E-04  2.50770E-05  2.95722E-05 -2.20497E-06  1.50000E+01
  2.03229E+01  2.01519E+01  2.00373E+01  2.86824E-01 -1.26580E+00  4.64000E-04  1.15778E+00 -4.71895E-04  4.54878E-04  4.49631E-05  2.14055E-03 -4.18995E+00  2.15009E-04  2.30333E-05  2.67307E-05 -1.17247E-06  1.50000E+01
  2.03476E+01  2.01529E+01  2.01452E+01  2.90576E-01 -1.28444E+00  6.84586E-04  1.16563E+00 -4.32211E-04  4.07863E-04  1.53990E-04  2.13878E-03 -3.93850E+00  2.97746E-04  2.32348E-05  2.91053E-05 -2.89005E-06  1.50000E+01
  2.03598E+01  2.01716E+01  2.01345E+01  2.98599E-01 -1.28558E+00  2.72629E-04  1.17861E+00 -4.03454E-04  3.80910E-04  1.30725E-04  2.05881E-03 -3.63432E+00  1.45390E-04  2.13955E-05  2.67003E-05 -2.81990E-06  1.50000E+01
  2.02994E+01  2.01129E+01  2.00969E+01  2.67528E-01 -1.26084E+00  1.18825E-03  1.15331E+00 -4.89693E-04  4.72555E-04  1.26087E-04  2.13213E-03 -4.47144E+00  1.05999E-04  2.57972E-05  3.07700E-05 -2.53445E-06  1.50000E+01
  2.02965E+01  2.01167E+01  2.00680E+01  2.68972E-01 -1.25748E+00  9.32818E-04  1.15231E+00 -4.81539E-04  4.66963E-04  8.76054E-05  2.19290E-03 -4.39382E+00  7.99754E-05  2.48330E-05  2.90459E-05 -1.86057E-06  1.50000E+01
  2.02833E+01  2.00982E+01  2.00822E+01  2.58631E-01 -1.25227E+00  1.14287E-03  1.13800E+00 -4.66229E-04  4.53478E-04  1.04764E-04  2.15655E-03 -4.27952E+00  7.95459E-05  2.45437E-05  2.88247E-05 -2.04001E-06  1.50000E+01
  2.03160E+01  2.01276E+01  2.01121E+01  2.76174E-01 -1.26919E+00  1.11033E-03  1.15789E+00 -5.25656E-04  5.03709E-04  1.51557E-04  2.41057E-03 -4.77709E+00  6.96770E-05  2.77308E-05  3.36193E-05 -3.07845E-06  1.50000E+01
  2.03028E+01  2.01074E+01  2.01254E+01  2.65344E-01 -1.26515E+00  1.37137E-03  1.13252E+00 -4.73309E-04  4.54464E-04  1.56725E-04  2.11918E-03 -4.37015E+00  1.04370E-04  2.58679E-05  3.15225E-05 -2.77917E-06  1.50000E+01
  2.03192E+01  2.01207E+01  2.01408E+01  2.73592E-01 -1.27400E+00  1.21713E-03  1.15879E+00 -4.70309E-04  4.47990E-04  1.69938E-04  2.22930E-03 -4.33878E+00  3.35381E-06  2.58929E-05  3.21122E-05 -2.99041E-06  1.50000E+01
  2.03128E+01  2.01324E+01  2.00824E+01  2.77782E-01 -1.26512E+00  9.41133E-04  1.17185E+00 -5.27333E-04  5.07774E-04  1.13100E-04  2.30573E-03 -4.78158E+00  1.15168E-04  2.70178E-05  3.20556E-05 -2.55119E-06  1.50000E+01
  2.03098E+01  2.01347E+01  2.00529E+01  2.78432E-01 -1.26200E+00  7.12443E-04  1.14170E+00 -4.83168E-04  4.67093E-04  6.70248E-05  2.22269E-03 -4.37288E+00  1.50133E-04  2.41415E-05  2.81201E-05 -1.51434E-06  1.50000E+01
  2.03689E+01  2.01942E+01  2.00981E+01  3.06009E-01 -1.28131E+00 -4.91547E-05  1.17270E+00 -3.83566E-04  3.66494E-04  8.85232E-05  2.18428E-03 -3.46536E+00  1.03840E-05  1.96995E-05  2.38285E-05 -2.44127E-06  1.50000E+01
  2.03666E+01  2.01973E+01  2.00726E+01  3.06390E-01 -1.27784E+00  3.04285E-05  1.18352E+00 -4.02363E-04  3.85934E-04  6.81218E-05  2.36768E-03 -3.58209E+00  1.85939E-04  2.02683E-05  2.40848E-05 -2.13271E-06  1.50000E+01
  2.03715E+01  2.01897E+01  2.01233E+01  3.05318E-01 -1.28563E+00 -1.46379E-04  1.19501E+00 -3.94673E-04  3.74670E-04  1.14987E-04  2.19281E-03 -3.57349E+00 -1.24707E-04  2.08533E-05  2.57330E-05 -2.73680E-06  1.50000E+01
  2.03523E+01  2.01828E+01  2.00610E+01  3.00819E-01 -1.27458E+00  1.51376E-04  1.18909E+00 -4.14393E-04  3.96808E-04  5.98795E-05  2.24797E-03 -3.65776E+00 -1.31852E-04  2.05511E-05  2.42848E-05 -1.84270E-06  1.50000E+01
  2.03646E+01  2.01992E+01  2.00463E+01  3.06526E-01 -1.27527E+00  4.09566E-06  1.21999E+00 -4.24992E-04  4.08633E-04  4.59360E-05  2.55602E-03 -3.76926E+00 -2.16648E-05  2.11272E-05  2.47410E-05 -1.64009E-06  1.50000E+01
  2.03080E+01  2.01360E+01  2.00241E+01  2.78747E-01 -1.26025E+00  4.11040E-04  1.13565E+00 -4.67191E-04  4.51999E-04  2.97107E-05  2.25021E-03 -4.19994E+00  1.18587E-04  2.27604E-05  2.62173E-05 -7.22676E-07  1.50000E+01
  2.03360E+01  2.01684E+01  2.00218E+01  2.94241E-01 -1.26900E+00  1.98920E-04  1.17880E+00 -4.65070E-04  4.46796E-04  2.50458E-05  2.24243E-03 -4.02755E+00  7.29108E-05  2.20773E-05  2.55600E-05 -8.04858E-07  1.50000E+01
  2.03216E+01  2.01524E+01  2.00089E+01  2.86849E-01 -1.26471E+00  1.92024E-04  1.16059E+00 -4.67218E-04  4.50304E-04  1.08890E-05  2.27114E-03 -4.10604E+00  1.13937E-04  2.22569E-05  2.56507E-05 -3.20301E-07  1.50000E+01
  2.03068E+01  2.01005E+01  2.01530E+01  2.62535E-01 -1.27040E+00  1.47523E-03  1.13025E+00 -4.50228E-04  4.29061E-04  1.81165E-04  2.17110E-03 -4.21470E+00  6.28866E-05  2.54719E-05  3.18167E-05 -2.91277E-06  1.50000E+01
  2.03233E+01  2.01132E+01  2.01679E+01  2.70691E-01 -1.27988E+00  1.26177E-03  1.15200E+00 -4.41563E-04  4.17335E-04  1.89943E-04  2.18720E-03 -4.15784E+00  3.87000E-05  2.52851E-05  3.20681E-05 -2.91987E-06  1.50000E+01
  2.06281E+01  2.03760E+01  1.96775E+01  1.32831E-01 -1.14959E+00 -1.12597E-01  8.48262E-01 -1.94982E-04  3.15348E-04 -1.17876E-04  1.15502E-02 -3.64070E+00  2.46265E-03  3.01693E-05  3.13961E-05  1.49428E-05  1.50000E+01
  2.06096E+01  2.03673E+01  1.96914E+01  1.61692E-01 -1.16981E+00 -8.97948E-02  1.03043E+00 -2.37016E-04  3.46370E-04 -1.37611E-04  1.42702E-02 -3.70096E+00  4.54608E-03  2.94833E-05  3.19942E-05  1.36614E-05  1.50000E+01
  2.06226E+01  2.03837E+01  1.97045E+01  9.67153E-02 -1.08344E+00 -1.18654E-01  8.28989E-01 -1.92494E-04  3.32505E-04 -1.06318E-04  9.30350E-03 -3.43047E+00  2.86325E-04  3.15177E-05  3.00116E-05  1.53738E-05  1.50000E+01
  2.06041E+01  2.03751E+01  1.97183E+01  1.30747E-01 -1.11343E+00 -9.43681E-02  1.00233E+00 -2.35497E-04  3.66650E-04 -1.23485E-04  1.31060E-02 -3.52329E+00  2.96354E-03  3.06131E-05  3.08893E-05  1.46228E-05  1.50000E+01
  2.06178E+01  2.03905E+01  1.97318E+01  5.94220E-02 -1.01427E+00 -1.22404E-01  9.78528E-01 -1.98021E-04  3.63814E-04 -9.94227E-05  5.90167E-03 -3.21021E+00 -2.16620E-03  3.28042E-05  2.80910E-05  1.47370E-05  1.50000E+01
  2.06856E+01  2.03996E+01  1.96373E+01  5.90612E-02 -1.10515E+00 -1.84373E-01  4.42954E-01 -1.05263E-04  2.44234E-04 -7.67853E-05  3.77072E-03 -3.50382E+00 -4.77023E-03  3.51526E-05  3.09494E-05  1.68663E-05  1.50000E+01
  2.06661E+01  2.03922E+01  1.96505E+01  8.03726E-02 -1.11565E+00 -1.60726E-01  6.35446E-01 -1.29813E-04  2.64671E-04 -8.78876E-05  5.68276E-03 -3.53659E+00 -2.63775E-03  3.33966E-05  3.08655E-05  1.60781E-05  1.50000E+01
  2.06801E+01  2.04070E+01  1.96641E+01  9.03017E-03 -1.01009E+00 -1.95209E-01  5.44582E-01 -1.00377E-04  2.53004E-04 -6.73165E-05 -2.54896E-04 -3.19988E+00 -7.58963E-03  3.63765E-05  2.84304E-05  1.57154E-05  1.50000E+01
  2.03747E+01  2.01840E+01  2.01487E+01  3.04369E-01 -1.29095E+00 -2.25922E-04  1.18277E+00 -4.13808E-04  3.89700E-04  1.44995E-04  2.50001E-03 -3.76313E+00  1.60469E-05  2.21018E-05  2.77651E-05 -2.77588E-06  1.50000E+01
  2.06753E+01  2.04134E+01  1.96913E+01 -4.10518E-02 -9.09244E-01 -2.01687E-01  5.35711E-01 -6.95598E-05  2.15011E-04 -4.29542E-05 -4.85299E-03 -2.87594E+00 -1.01071E-02  3.70490E-05  2.54235E-05  1.42014E-05  1.50000E+01
  2.06950E+01  2.04203E+01  1.96781E+01 -6.61846E-02 -8.87696E-01 -2.27271E-01  2.49599E-01 -4.28394E-05  1.78279E-04 -3.29056E-05 -5.45180E-03 -2.80719E+00 -1.08394E-02  3.98266E-05  2.57191E-05  1.29284E-05  1.50000E+01
  2.03774E+01  2.02155E+01  2.00320E+01  3.11235E-01 -1.27519E+00 -1.15002E-04  1.22258E+00 -4.12211E-04  4.00375E-04  3.00953E-05  2.87308E-03 -3.81354E+00 -3.22754E-05  2.16474E-05  2.51381E-05 -1.33007E-06  1.50000E+01
  2.03634E+01  2.02001E+01  2.00193E+01  3.06516E-01 -1.27384E+00 -3.46902E-05  1.23298E+00 -4.30425E-04  4.15167E-04  1.91773E-05  2.59278E-03 -3.86648E+00 -3.88162E-05  2.13607E-05  2.47594E-05 -8.55095E-07  1.50000E+01
  2.03354E+01  2.01333E+01  2.01563E+01  2.81194E-01 -1.28248E+00  9.76552E-04  1.16255E+00 -4.47198E-04  4.22617E-04  1.75250E-04  2.10802E-03 -4.14348E+00  4.37821E-05  2.48360E-05  3.12920E-05 -2.96349E-06  1.50000E+01
  2.03398E+01  2.01255E+01  2.01827E+01  2.78444E-01 -1.28902E+00  9.35545E-04  1.15146E+00 -4.31804E-04  4.04116E-04  1.97363E-04  2.28649E-03 -4.07747E+00  7.53483E-05  2.46755E-05  3.17379E-05 -2.82337E-06  1.50000E+01
  2.03514E+01  2.01455E+01  2.01714E+01  2.88345E-01 -1.29053E+00  6.07191E-04  1.16841E+00 -4.29723E-04  4.02336E-04  1.80553E-04  2.28315E-03 -3.99152E+00  1.42566E-04  2.38466E-05  3.04571E-05 -2.82215E-06  1.50000E+01
  2.03074E+01  2.01361E+01  1.99957E+01  2.78731E-01 -1.25974E+00  6.70080E-05  1.13602E+00 -4.58448E-04  4.43353E-04 -4.72210E-06  2.30043E-03 -4.10762E+00  6.53859E-05  2.20319E-05  2.52984E-05  9.41354E-08  1.50000E+01
  2.03354E+01  2.01683E+01  1.99938E+01  2.94127E-01 -1.26861E+00 -5.18341E-06  1.18084E+00 -4.66388E-04  4.48060E-04 -6.79879E-06  2.36648E-03 -4.01993E+00  4.54906E-05  2.18454E-05  2.52145E-05  2.28676E-07  1.50000E+01
  2.03215E+01  2.01518E+01  1.99808E+01  2.86627E-01 -1.26484E+00 -1.08296E-04  1.16096E+00 -4.60489E-04  4.43723E-04 -2.21085E-05  2.33384E-03 -4.05254E+00  4.13605E-05  2.19455E-05  2.53113E-05  5.34000E-07  1.50000E+01
  2.06289E+01  2.04093E+01  1.97735E+01 -5.95265E-02 -8.08043E-01 -1.47081E-01  1.39141E+00 -1.54469E-04  3.75402E-04 -6.66334E-05 -9.23279E-03 -2.54681E+00 -1.00799E-02  3.34982E-05  2.09277E-05  1.14024E-05  1.50000E+01
  2.06482E+01  2.04164E+01  1.97599E+01 -9.97767E-02 -7.49316E-01 -1.73383E-01  8.23204E-01 -1.16018E-04  3.33103E-04 -5.21691E-05 -1.25336E-02 -2.35811E+00 -1.21750E-02  3.48378E-05  1.95481E-05  1.00854E-05  1.50000E+01
  2.06325E+01  2.04044E+01  1.97457E+01 -1.94160E-02 -8.91757E-01 -1.49970E-01  9.96732E-01 -1.51489E-04  3.41576E-04 -7.28373E-05 -3.88018E-03 -2.81777E+00 -8.05393E-03  3.38237E-05  2.37336E-05  1.28458E-05  1.50000E+01
  2.03833E+01  2.02075E+01  2.01111E+01  3.10842E-01 -1.28443E+00 -4.26292E-04  1.19121E+00 -4.02097E-04  3.85005E-04  1.03099E-04  2.75628E-03 -3.68237E+00 -9.77429E-05  2.14824E-05  2.61710E-05 -2.80717E-06  1.50000E+01
  2.01147E+01  1.98543E+01  2.01911E+01  8.07376E-02 -1.12937E+00 -1.36511E-04  8.83236E-01 -1.66195E-04  2.31560E-04  1.33675E-04  1.79372E-03 -3.54630E+00 -3.30623E-04  4.24618E-05  4.92905E-05 -2.08659E-06  1.50000E+01
  2.01030E+01  1.98330E+01  2.02018E+01  6.30357E-02 -1.11709E+00 -1.58857E-04  1.20715E+00 -8.72434E-05  1.81256E-04  9.31322E-05  1.42722E-03 -3.50874E+00 -4.01873E-04  5.43096E-05  6.17459E-05 -1.48093E-06  1.50000E+01
  2.01213E+01  1.98432E+01  2.02146E+01  7.25654E-02 -1.13441E+00 -9.30508E-05  8.29672E-01 -1.18551E-04  2.17209E-04  1.24237E-04  1.28402E-03 -3.57246E+00 -3.49107E-04  5.96194E-05  6.94169E-05 -1.67043E-06  1.50000E+01
  2.06875E+01  2.04297E+01  1.97333E+01 -1.65660E-01 -6.58062E-01 -2.24675E-01  4.15182E-01 -1.74630E-06  9.89642E-05 -8.01034E-06 -1.26858E-02 -2.06700E+00 -1.20974E-02  3.60123E-05  1.80963E-05  8.65155E-06  1.50000E+01
  2.07073E+01  2.04362E+01  1.97201E+01 -1.92871E-01 -6.28037E-01 -2.50559E-01 -2.44255E-01  3.12188E-05 -1.99422E-05  8.89553E-06 -1.08107E-01 -8.12487E-01 -5.40119E-02  1.83115E-05  9.20413E-06  4.11864E-06  1.50000E+01
  2.06909E+01  2.04255E+01  1.97056E+01 -1.17855E-01 -7.73586E-01 -2.29034E-01  1.92539E-01  6.06401E-06  8.42674E-05 -5.76543E-06 -9.50897E-03 -2.43957E+00 -1.19996E-02  3.86834E-05  2.19996E-05  1.07156E-05  1.50000E+01
  2.06366E+01  2.03986E+01  1.97181E+01  2.22852E-02 -9.74663E-01 -1.48815E-01  7.51650E-01 -1.47381E-04  3.10836E-04 -7.77239E-05  1.19142E-03 -3.08460E+00 -5.44436E-03  3.32313E-05  2.63723E-05  1.45808E-05  1.50000E+01
  2.06517E+01  2.04117E+01  1.97321E+01 -5.67820E-02 -8.44641E-01 -1.76765E-01  6.27295E-01 -1.04551E-04  2.79533E-04 -5.25753E-05 -7.60816E-03 -2.66670E+00 -1.06053E-02  3.42403E-05  2.20995E-05  1.25124E-05  1.50000E+01
  2.03077E+01  2.01349E+01  1.99677E+01  2.78322E-01 -1.26037E+00 -2.87847E-04  1.13959E+00 -4.51373E-04  4.36715E-04 -3.77101E-05  2.28858E-03 -4.05335E+00  1.93640E-06  2.20796E-05  2.54827E-05  8.40536E-07  1.50000E+01
  2.02944E+01  2.01189E+01  2.00391E+01  2.69777E-01 -1.25522E+00  6.22065E-04  1.12765E+00 -4.65212E-04  4.52463E-04  4.89852E-05  2.21753E-03 -4.25072E+00  8.73066E-05  2.34337E-05  2.69988E-05 -1.01114E-06  1.50000E+01
  2.02933E+01  2.01198E+01  2.00105E+01  2.70088E-01 -1.25413E+00  2.60681E-04  1.12440E+00 -4.54933E-04  4.42605E-04  1.32618E-05  2.26407E-03 -4.14862E+00  6.27290E-05  2.25465E-05  2.58144E-05 -3.02183E-07  1.50000E+01
  2.06723E+01  2.03837E+01  1.96241E+01  1.24261E-01 -1.19558E+00 -1.48817E-01  5.55085E-01 -1.30371E-04  2.50970E-04 -9.85610E-05  8.21192E-03 -3.79020E+00 -1.61817E-04  3.26573E-05  3.27412E-05  1.52069E-05  1.50000E+01
  2.05993E+01  2.03820E+01  1.97457E+01  9.85800E-02 -1.05514E+00 -9.71022E-02  1.07135E+00 -2.38193E-04  3.92050E-04 -1.13114E-04  1.09163E-02 -3.33746E+00  1.06192E-03  3.14446E-05  2.91739E-05  1.46751E-05  1.50000E+01
  2.06136E+01  2.03965E+01  1.97594E+01  2.19846E-02 -9.43208E-01 -1.23229E-01  1.25033E+00 -1.98841E-04  3.90622E-04 -9.05386E-05  1.56176E-03 -2.98195E+00 -4.58776E-03  3.33248E-05  2.57064E-05  1.40422E-05  1.50000E+01
  2.02809E+01  2.01014E+01  2.00537E+01  2.59975E-01 -1.24960E+00  8.23179E-04  1.14166E+00 -4.60119E-04  4.49277E-04  6.80511E-05  2.20097E-03 -4.22584E+00  6.11498E-05  2.37295E-05  2.73735E-05 -1.17541E-06  1.50000E+01
  2.02656E+01  2.00860E+01  2.00396E+01  2.50606E-01 -1.24138E+00  6.46611E-04  1.12799E+00 -4.45230E-04  4.37808E-04  5.00233E-05  2.23323E-03 -4.11805E+00  3.91655E-05  2.31372E-05  2.64006E-05 -8.17218E-07  1.50000E+01
  2.02675E+01  2.00834E+01  2.00678E+01  2.49423E-01 -1.24343E+00  1.00964E-03  1.12077E+00 -4.49976E-04  4.41638E-04  8.57076E-05  2.21612E-03 -4.15811E+00  6.14089E-05  2.40113E-05  2.77949E-05 -1.61694E-06  1.50000E+01
  2.03808E+01  2.02113E+01  2.00851E+01  3.11123E-01 -1.28032E+00 -2.53096E-04  1.19106E+00 -4.07436E-04  3.92240E-04  7.95982E-05  2.79037E-03 -3.67560E+00 -2.64923E-06  2.12428E-05  2.54183E-05 -2.66066E-06  1.50000E+01
  2.03788E+01  2.02139E+01  2.00588E+01  3.11238E-01 -1.27722E+00 -1.43098E-04  1.21098E+00 -4.14245E-04  4.00503E-04  5.57134E-05  2.84587E-03 -3.74233E+00  6.29725E-05  2.14991E-05  2.52906E-05 -2.19401E-06  1.50000E+01
  2.03905E+01  2.02315E+01  2.00179E+01  3.14702E-01 -1.27405E+00 -1.59687E-04  1.16882E+00 -3.97987E-04  3.91021E-04  1.54805E-05  3.24387E-03 -3.83121E+00 -4.73309E-05  2.20579E-05  2.53943E-05 -9.16346E-07  1.50000E+01
  2.03767E+01  2.02160E+01  2.00049E+01  3.11160E-01 -1.27435E+00 -1.05823E-04  1.20739E+00 -4.13476E-04  4.02421E-04  4.28443E-06  2.84509E-03 -3.86020E+00 -6.27356E-05  2.15438E-05  2.48547E-05 -1.96303E-07  1.50000E+01
  2.06559E+01  2.04062E+01  1.97046E+01 -1.14717E-02 -9.38858E-01 -1.75445E-01  7.91702E-01 -1.03374E-04  2.58536E-04 -5.77411E-05 -2.53433E-03 -2.97081E+00 -8.21952E-03  3.46165E-05  2.54746E-05  1.43099E-05  1.50000E+01
  2.06606E+01  2.03996E+01  1.96773E+01  3.47098E-02 -1.02973E+00 -1.69876E-01  7.81761E-01 -1.09928E-04  2.51288E-04 -6.77049E-05  1.99124E-03 -3.26279E+00 -5.45965E-03  3.46652E-05  2.87259E-05  1.57890E-05  1.50000E+01
  2.05914E+01  2.03582E+01  1.97054E+01  1.90492E-01 -1.19017E+00 -6.89286E-02  1.03873E+00 -2.59590E-04  3.52393E-04 -1.43680E-04  1.62028E-02 -3.76128E+00  5.96152E-03  2.84249E-05  3.24345E-05  1.29500E-05  1.50000E+01
  2.02903E+01  2.00875E+01  2.01381E+01  2.53966E-01 -1.26061E+00  1.57744E-03  1.12440E+00 -4.44255E-04  4.28155E-04  1.66110E-04  2.15949E-03 -4.20513E+00  1.06061E-04  2.53555E-05  3.10760E-05 -2.67670E-06  1.50000E+01
  2.02781E+01  2.00674E+01  2.01506E+01  2.41843E-01 -1.25554E+00  1.71583E-03  1.09665E+00 -4.21474E-04  4.08690E-04  1.76153E-04  2.16877E-03 -4.13019E+00  1.04343E-04  2.55456E-05  3.13831E-05 -2.43898E-06  1.50000E+01
  2.02948E+01  2.00802E+01  2.01651E+01  2.50687E-01 -1.26622E+00  1.67138E-03  1.11027E+00 -4.30121E-04  4.11540E-04  1.91366E-04  2.20556E-03 -4.14987E+00  9.21014E-05  2.54896E-05  3.20317E-05 -2.86976E-06  1.50000E+01
  2.06713E+01  2.04187E+01  1.97188E+01 -8.95556E-02 -8.04596E-01 -2.03122E-01  4.64280E-01 -6.24708E-05  2.17139E-04 -3.43790E-05 -9.41092E-03 -2.53831E+00 -1.19025E-02  3.65375E-05  2.21149E-05  1.28150E-05  1.50000E+01
  2.06156E+01  2.03588E+01  1.96648E+01  1.90773E-01 -1.22370E+00 -8.39261E-02  8.51517E-01 -2.41815E-04  3.33329E-04 -1.54134E-04  1.44436E-02 -3.87104E+00  5.65837E-03  2.87262E-05  3.29134E-05  1.21238E-05  1.50000E+01
  2.05975E+01  2.03496E+01  1.96788E+01  2.14613E-01 -1.23601E+00 -6.46874E-02  1.03275E+00 -2.68447E-04  3.44960E-04 -1.63499E-04  1.56380E-02 -3.90508E+00  6.60778E-03  2.82961E-05  3.33565E-05  1.08119E-05  1.50000E+01
  2.03561E+01  2.01376E+01  2.01972E+01  2.85845E-01 -1.29777E+00  4.55249E-04  1.15755E+00 -4.27062E-04  3.94997E-04  2.05687E-04  2.47984E-03 -4.03657E+00  9.44293E-05  2.41949E-05  3.14877E-05 -2.63241E-06  1.50000E+01
  2.03674E+01  2.01577E+01  2.01858E+01  2.95147E-01 -1.29809E+00  5.00349E-05  1.17067E+00 -4.25111E-04  3.94271E-04  1.89252E-04  2.57605E-03 -3.96151E+00  9.92900E-05  2.35435E-05  3.03416E-05 -2.58028E-06  1.50000E+01
  2.03449E+01  2.01169E+01  2.02086E+01  2.75319E-01 -1.29661E+00  8.11810E-04  1.14148E+00 -4.23530E-04  3.91626E-04  2.19963E-04  2.38626E-03 -4.09325E+00  7.07648E-05  2.46759E-05  3.23285E-05 -2.51621E-06  1.50000E+01
  2.03357E+01  2.01671E+01  1.99661E+01  2.93788E-01 -1.26938E+00 -2.32553E-04  1.17724E+00 -4.60667E-04  4.43043E-04 -3.84337E-05  2.37194E-03 -4.00551E+00 -1.53397E-05  2.21037E-05  2.56535E-05  1.10332E-06  1.50000E+01
  2.06469E+01  2.03843E+01  1.96639E+01  1.05293E-01 -1.13100E+00 -1.36534E-01  8.77014E-01 -1.45018E-04  2.68291E-04 -9.26650E-05  8.45001E-03 -3.58453E+00 -9.08555E-05  3.16281E-05  3.08808E-05  1.51846E-05  1.50000E+01
  2.06531E+01  2.03758E+01  1.96374E+01  1.44383E-01 -1.20229E+00 -1.26805E-01  6.65548E-01 -1.60500E-04  2.73344E-04 -1.13410E-04  1.02688E-02 -3.80953E+00  2.00228E-03  3.13935E-05  3.28158E-05  1.40329E-05  1.50000E+01
  2.06342E+01  2.03675E+01  1.96510E+01  1.66945E-01 -1.21208E+00 -1.04890E-01  8.19002E-01 -1.91077E-04  2.93362E-04 -1.28175E-04  1.24864E-02 -3.83835E+00  4.02767E-03  3.00147E-05  3.30256E-05  1.33595E-05  1.50000E+01
  2.05797E+01  2.03401E+01  1.96930E+01  2.37338E-01 -1.24809E+00 -4.77410E-02  1.12439E+00 -2.84656E-04  3.44901E-04 -1.65884E-04  1.60145E-02 -3.93886E+00  6.93804E-03  2.75245E-05  3.36670E-05  1.01649E-05  1.50000E+01
  2.03981E+01  2.02207E+01  2.01246E+01  3.14912E-01 -1.28684E+00 -8.79778E-04  1.17879E+00 -4.07817E-04  3.91667E-04  1.15130E-04  3.30875E-03 -3.78896E+00 -2.24354E-04  2.22735E-05  2.73091E-05 -3.04014E-06  1.50000E+01
  2.03863E+01  2.02025E+01  2.01369E+01  3.10375E-01 -1.28956E+00 -6.21854E-04  1.19204E+00 -4.11723E-04  3.90737E-04  1.30417E-04  2.81829E-03 -3.76066E+00 -1.57737E-04  2.21062E-05  2.74591E-05 -2.89360E-06  1.50000E+01
  2.02864E+01  2.00935E+01  2.01105E+01  2.56630E-01 -1.25596E+00  1.39972E-03  1.11975E+00 -4.58003E-04  4.43831E-04  1.37470E-04  2.16202E-03 -4.26823E+00  1.01926E-04  2.50065E-05  2.99834E-05 -2.46049E-06  1.50000E+01
  2.02702E+01  2.00795E+01  2.00958E+01  2.47570E-01 -1.24650E+00  1.31991E-03  1.11521E+00 -4.43750E-04  4.34417E-04  1.18857E-04  2.19144E-03 -4.17269E+00  8.47469E-05  2.45427E-05  2.89109E-05 -2.05127E-06  1.50000E+01
  2.01097E+01  1.98212E+01  2.02248E+01  5.43000E-02 -1.12188E+00  0.00000E+00  6.31044E-01  1.63690E-05  4.81803E-05  1.09068E-05  1.01002E+01  4.65566E+01 -4.02248E+01  3.29879E-05  3.70206E-05  8.88413E-08  1.50000E+01
  2.07148E+01  2.04272E+01  1.96651E+01 -8.71189E-02 -8.75143E-01 -2.52286E-01  3.33813E-01 -2.16197E-05  9.50180E-05 -1.70729E-05 -9.83296E-02 -1.25045E+00 -6.42836E-02  2.20905E-05  1.44743E-05  7.51684E-06  1.50000E+01
  2.06998E+01  2.04141E+01  1.96510E+01 -1.23126E-02 -9.97497E-01 -2.19651E-01  2.83251E-01 -6.49395E-05  2.12310E-04 -4.89351E-05 -1.08533E-03 -3.15996E+00 -8.78536E-03  4.06303E-05  3.02976E-05  1.68841E-05  1.50000E+01
  2.06041E+01  2.03403E+01  1.96526E+01  2.36817E-01 -1.28022E+00 -5.98190E-02  9.40269E-01 -2.76104E-04  3.36587E-04 -1.84521E-04  1.45292E-02 -4.04468E+00  6.85964E-03  2.76383E-05  3.33062E-05  8.38397E-06  1.50000E+01
  2.05862E+01  2.03309E+01  1.96667E+01  2.55241E-01 -1.28595E+00 -4.43474E-02  9.89676E-01 -2.96151E-04  3.41454E-04 -1.89633E-04  1.46130E-02 -4.05788E+00  6.95929E-03  2.73822E-05  3.36988E-05  7.35272E-06  1.50000E+01
  2.02932E+01  2.01194E+01  1.99823E+01  2.69916E-01 -1.25416E+00 -1.26185E-04  1.12520E+00 -4.47698E-04  4.35392E-04 -2.07127E-05  2.28077E-03 -4.07757E+00  1.55385E-05  2.21576E-05  2.53836E-05  4.58594E-07  1.50000E+01
  2.03900E+01  2.01966E+01  2.01627E+01  3.09694E-01 -1.29579E+00 -8.41299E-04  1.17524E+00 -4.20359E-04  3.94765E-04  1.57820E-04  2.95887E-03 -3.85250E+00 -1.21754E-04  2.26985E-05  2.87857E-05 -2.94921E-06  1.50000E+01
  2.03115E+01  2.00927E+01  2.01797E+01  2.59216E-01 -1.27664E+00  1.50934E-03  1.14119E+00 -4.31408E-04  4.08071E-04  2.03152E-04  2.23940E-03 -4.14111E+00  6.74415E-05  2.54824E-05  3.25650E-05 -2.90484E-06  1.50000E+01
  2.03283E+01  2.01049E+01  2.01942E+01  2.67422E-01 -1.28679E+00  1.22944E-03  1.12968E+00 -4.25764E-04  3.98484E-04  2.11105E-04  2.27549E-03 -4.11470E+00  6.88430E-05  2.51425E-05  3.25849E-05 -2.76072E-06  1.50000E+01
  2.01264E+01  1.98752E+01  2.01800E+01  9.79335E-02 -1.14102E+00 -1.02534E-05  7.89148E-01 -1.91953E-04  2.43252E-04  1.35095E-04  1.86698E-03 -3.59174E+00 -2.56856E-04  3.56808E-05  4.08578E-05 -1.01054E-06  1.50000E+01
  2.01087E+01  1.98640E+01  2.01670E+01  8.79272E-02 -1.12472E+00 -1.22242E-04  8.09201E-01 -1.83720E-04  2.38436E-04  1.21881E-04  2.14444E-03 -3.51835E+00 -2.86031E-04  3.71497E-05  4.15492E-05 -5.40115E-07  1.50000E+01
  2.06600E+01  2.03665E+01  1.96115E+01  1.80811E-01 -1.26840E+00 -1.15633E-01  6.89391E-01 -1.66053E-04  2.66089E-04 -1.30160E-04  1.09381E-02 -4.01796E+00  3.44564E-03  3.05961E-05  3.34238E-05  1.19143E-05  1.50000E+01
  2.02506E+01  2.00704E+01  2.00258E+01  2.40785E-01 -1.23279E+00  4.34566E-04  1.13019E+00 -4.34425E-04  4.30059E-04  3.27194E-05  2.23384E-03 -4.03756E+00  1.60939E-05  2.27274E-05  2.57002E-05 -5.03879E-07  1.50000E+01
  2.02520E+01  2.00685E+01  2.00537E+01  2.39829E-01 -1.23428E+00  8.17864E-04  1.11452E+00 -4.39063E-04  4.34367E-04  6.82232E-05  2.24368E-03 -4.06740E+00  3.98926E-05  2.35494E-05  2.68837E-05 -1.09991E-06  1.50000E+01
  2.03953E+01  2.02250E+01  2.00983E+01  3.14965E-01 -1.28197E+00 -6.11578E-04  1.17803E+00 -4.06524E-04  3.93343E-04  9.00581E-05  3.29786E-03 -3.75961E+00 -1.44785E-04  2.20078E-05  2.64955E-05 -3.03926E-06  1.50000E+01
  2.03930E+01  2.02283E+01  2.00718E+01  3.14918E-01 -1.27819E+00 -3.94810E-04  1.20553E+00 -4.05486E-04  3.94880E-04  6.53070E-05  3.29356E-03 -3.76548E+00 -6.74137E-05  2.20816E-05  2.60973E-05 -2.70127E-06  1.50000E+01
  2.02830E+01  2.00596E+01  2.01771E+01  2.37988E-01 -1.26148E+00  1.78393E-03  1.08714E+00 -4.08779E-04  3.93195E-04  1.99640E-04  2.11166E-03 -4.11234E+00  8.10427E-05  2.56791E-05  3.24298E-05 -2.72811E-06  1.50000E+01
  2.02715E+01  2.00387E+01  2.01891E+01  2.24471E-01 -1.25619E+00  1.80942E-03  1.07153E+00 -3.88152E-04  3.75648E-04  2.06799E-04  2.00479E-03 -4.07438E+00  5.82128E-05  2.61078E-05  3.32905E-05 -2.89440E-06  1.50000E+01
  2.02886E+01  2.00507E+01  2.02031E+01  2.33498E-01 -1.26835E+00  1.77098E-03  1.08998E+00 -3.93571E-04  3.75470E-04  2.18354E-04  2.03623E-03 -4.10513E+00  5.82272E-05  2.61035E-05  3.41067E-05 -3.26317E-06  1.50000E+01
  2.05686E+01  2.03211E+01  1.96810E+01  2.72066E-01 -1.29152E+00 -3.11713E-02  1.11547E+00 -3.11664E-04  3.43294E-04 -1.91581E-04  1.41138E-02 -4.07145E+00  6.64337E-03  2.68412E-05  3.39757E-05  6.94956E-06  1.50000E+01
  2.02794E+01  2.01031E+01  2.00252E+01  2.60704E-01 -1.24800E+00  4.56302E-04  1.11322E+00 -4.50720E-04  4.40962E-04  3.15489E-05  2.24711E-03 -4.15150E+00  4.67308E-05  2.29543E-05  2.62153E-05 -5.81691E-07  1.50000E+01
  2.02788E+01  2.01035E+01  1.99970E+01  2.60851E-01 -1.24749E+00  5.80085E-05  1.11089E+00 -4.43984E-04  4.34378E-04 -3.26629E-06  2.26112E-03 -4.08672E+00  1.71590E-05  2.24329E-05  2.55514E-05  7.34694E-08  1.50000E+01
  2.03914E+01  2.02304E+01  2.00450E+01  3.14814E-01 -1.27553E+00 -2.48124E-04  1.18354E+00 -3.99258E-04  3.91336E-04  3.99202E-05  3.26784E-03 -3.79617E+00 -2.62272E-05  2.21616E-05  2.57833E-05 -2.03717E-06  1.50000E+01
  2.06410E+01  2.03582E+01  1.96249E+01  1.98557E-01 -1.27065E+00 -9.61052E-02  7.92408E-01 -1.98931E-04  2.86132E-04 -1.46460E-04  1.24739E-02 -4.02199E+00  5.02003E-03  2.94424E-05  3.32763E-05  1.05888E-05  1.50000E+01
  2.06224E+01  2.03495E+01  1.96387E+01  2.17587E-01 -1.27488E+00 -7.72586E-02  8.60371E-01 -2.39745E-04  3.14995E-04 -1.67358E-04  1.37468E-02 -4.03232E+00  6.18473E-03  2.82348E-05  3.32659E-05  9.72034E-06  1.50000E+01
  2.02738E+01  2.00741E+01  2.01235E+01  2.45044E-01 -1.25055E+00  1.55984E-03  1.12369E+00 -4.33032E-04  4.21956E-04  1.49020E-04  2.19391E-03 -4.15689E+00  1.03624E-04  2.49251E-05  2.99316E-05 -2.21494E-06  1.50000E+01
  2.02574E+01  2.00604E+01  2.01091E+01  2.35789E-01 -1.24021E+00  1.44364E-03  1.08704E+00 -4.22970E-04  4.16747E-04  1.32402E-04  2.17886E-03 -4.09366E+00  8.29394E-05  2.46002E-05  2.89857E-05 -1.80443E-06  1.50000E+01
  2.04173E+01  2.02624E+01  1.99895E+01  3.16916E-01 -1.26749E+00 -2.73216E-05  1.08606E+00 -3.77958E-04  3.82985E-04 -8.77475E-06  4.75794E-03 -3.85252E+00  3.57368E-05  2.39966E-05  2.72077E-05  6.35042E-07  1.50000E+01
  2.04039E+01  2.02465E+01  1.99762E+01  3.16702E-01 -1.27200E+00  1.63295E-05  1.15079E+00 -3.92374E-04  3.90762E-04 -2.05849E-05  3.84720E-03 -3.87474E+00  1.24731E-05  2.31664E-05  2.65522E-05  1.20503E-06  1.50000E+01
  2.04038E+01  2.02471E+01  2.00037E+01  3.16703E-01 -1.27159E+00 -1.18631E-04  1.12010E+00 -3.87919E-04  3.86405E-04  2.75320E-06  3.84226E-03 -3.84510E+00 -2.62405E-05  2.30109E-05  2.62823E-05 -2.31018E-07  1.50000E+01
  2.06484E+01  2.03481E+01  1.95994E+01  2.27396E-01 -1.32532E+00 -8.67370E-02  7.47158E-01 -2.14366E-04  2.90185E-04 -1.72591E-04  1.17423E-02 -4.19385E+00  5.43715E-03  2.85286E-05  3.28671E-05  8.03121E-06  1.50000E+01
  2.04056E+01  2.02090E+01  2.01768E+01  3.14321E-01 -1.29998E+00 -1.52220E-03  1.18369E+00 -4.20052E-04  3.93945E-04  1.67531E-04  3.40711E-03 -3.90165E+00 -3.15986E-04  2.32860E-05  2.98270E-05 -3.20275E-06  1.50000E+01
  2.04015E+01  2.02154E+01  2.01508E+01  3.14718E-01 -1.29283E+00 -1.18261E-03  1.17720E+00 -4.18490E-04  3.97338E-04  1.42929E-04  3.35178E-03 -3.84176E+00 -2.89048E-04  2.28903E-05  2.86624E-05 -3.14033E-06  1.50000E+01
  2.02543E+01  2.00651E+01  2.00815E+01  2.38163E-01 -1.23676E+00  1.16075E-03  1.09502E+00 -4.33096E-04  4.28503E-04  1.01484E-04  2.20939E-03 -4.08764E+00  6.43281E-05  2.44008E-05  2.82914E-05 -1.70399E-06  1.50000E+01
  2.03058E+01  2.00625E+01  2.02172E+01  2.42327E-01 -1.28031E+00  1.62005E-03  1.07425E+00 -3.99548E-04  3.75912E-04  2.30575E-04  2.08727E-03 -4.12533E+00  5.22385E-05  2.58874E-05  3.45479E-05 -3.42578E-06  1.50000E+01
  2.03230E+01  2.00741E+01  2.02312E+01  2.50950E-01 -1.29205E+00  1.34551E-03  1.09599E+00 -4.02110E-04  3.73554E-04  2.40827E-04  2.15254E-03 -4.13841E+00  4.38660E-05  2.57088E-05  3.45021E-05 -2.85334E-06  1.50000E+01
  2.03169E+01  2.00839E+01  2.02057E+01  2.55360E-01 -1.28387E+00  1.46476E-03  1.10772E+00 -4.17046E-04  3.90781E-04  2.23673E-04  2.20382E-03 -4.12885E+00  6.28523E-05  2.55398E-05  3.35441E-05 -3.05494E-06  1.50000E+01
  2.00912E+01  1.98524E+01  2.01539E+01  7.76290E-02 -1.10837E+00 -1.74806E-04  8.04894E-01 -1.75460E-04  2.37198E-04  1.06766E-04  2.46407E-03 -3.43415E+00 -2.93756E-04  3.82329E-05  4.29156E-05 -1.63857E-06  1.50000E+01
  2.00790E+01  1.98325E+01  2.01652E+01  6.09090E-02 -1.09572E+00 -2.35803E-04  6.96293E-01 -1.19741E-04  2.00463E-04  8.84414E-05  2.25673E-03 -3.36965E+00 -3.83585E-04  4.54713E-05  5.11495E-05 -3.12559E-06  1.50000E+01