 TITLE="3D TRIANGULAR SURFACE DATA"
VARIABLES="X","Y","Z","U","V","W","P", "Fex", "Fey", "Fez","Finx","Finy","Finz","WSSx","WSSy","WSSz","AMForce"
 ZONE T="unstruc"N=        1757 E=        3355 F=FEPOINT  ET=TRIANGLE
  2.03796E+01  2.03878E+01  2.00906E+01 -6.56745E-01  1.22869E-01  2.39916E-02 -8.99234E-01  5.65624E-05 -5.26858E-04  6.27165E-05 -2.92002E-03  5.59952E-01 -6.68797E-03  6.92655E-05 -1.43661E-06  7.16909E-07  1.50000E+01
  2.04023E+01  2.03872E+01  2.00906E+01 -6.58518E-01  1.40341E-01  1.85983E-02 -8.44574E-01  2.39116E-05 -2.48716E-04  3.17965E-05  1.01316E-03  2.83194E-01 -1.92442E-03  3.23275E-05 -9.74200E-07  5.96893E-07  1.50000E+01
  2.03978E+01  2.03851E+01  2.00707E+01 -6.59834E-01  1.48705E-01  1.49591E-02 -8.96070E-01  3.48196E-05 -3.75186E-04  3.71943E-05 -1.35952E-03  4.47072E-01 -9.97539E-04  4.85310E-05 -1.67473E-06  7.15182E-07  1.50000E+01
  2.03758E+01  2.03918E+01  2.01199E+01 -6.53709E-01  8.82060E-02  3.65380E-02 -8.77994E-01  5.46327E-05 -4.34999E-04  6.44936E-05 -3.42224E-03  3.51991E-01 -4.83677E-03  5.76838E-05 -1.82866E-07  6.40723E-07  1.50000E+01
  2.03980E+01  2.03900E+01  2.01103E+01 -6.57070E-01  1.23772E-01  2.49577E-02 -7.23593E-01  3.82894E-05 -3.51587E-04  5.32258E-05 -2.09081E-03  3.75881E-01 -5.65629E-03  4.75966E-05 -1.07070E-06  7.75851E-07  1.50000E+01
  2.04182E+01  2.03881E+01  2.01015E+01 -6.59218E-01  1.42582E-01  1.78184E-02 -8.18545E-01  3.02579E-05 -3.10610E-04  4.56586E-05 -5.86250E-05  3.62606E-01 -1.74338E-03  4.09269E-05 -1.20744E-06  1.07765E-06  1.50000E+01
  2.04182E+01  2.03852E+01  2.00794E+01 -6.60769E-01  1.52984E-01  1.31615E-02 -8.76493E-01  2.96888E-05 -3.18561E-04  3.67820E-05 -2.35134E-04  3.88026E-01 -2.32333E-03  4.15420E-05 -1.41975E-06  1.04112E-06  1.50000E+01
  2.03954E+01  2.03831E+01  2.00458E+01 -6.61047E-01  1.57005E-01  9.68568E-03 -9.19578E-01  3.78868E-05 -4.13045E-04  2.71689E-05 -1.35814E-03  5.09805E-01 -1.24015E-03  5.39044E-05 -2.04199E-06  5.70717E-07  1.50000E+01
  2.03754E+01  2.03850E+01  2.00614E+01 -6.58325E-01  1.38096E-01  1.59063E-02 -9.24479E-01  4.52106E-05 -4.66598E-04  3.91074E-05 -1.73213E-03  5.19583E-01 -4.10125E-03  5.98459E-05 -1.75269E-06  4.69208E-07  1.50000E+01
  2.03736E+01  2.03833E+01  2.00346E+01 -6.59421E-01  1.47888E-01  9.02788E-03 -9.36099E-01  4.12441E-05 -4.42694E-04  2.11086E-05 -1.55057E-03  5.19825E-01 -2.01245E-03  5.70462E-05 -1.97251E-06  2.58043E-07  1.50000E+01
  2.03960E+01  2.03940E+01  2.01348E+01 -6.54610E-01  9.83216E-02  3.46135E-02 -8.82698E-01  4.63379E-05 -3.89803E-04  6.85146E-05 -2.26786E-03  3.33908E-01 -5.78093E-03  5.17120E-05 -4.20039E-07  1.03471E-06  1.50000E+01
  2.04170E+01  2.03917E+01  2.01243E+01 -6.57580E-01  1.27441E-01  2.37962E-02 -8.18755E-01  3.70664E-05 -3.54946E-04  6.19106E-05 -1.62099E-03  3.79592E-01 -3.95776E-03  4.72703E-05 -1.09582E-06  1.12978E-06  1.50000E+01
  2.03316E+01  2.03881E+01  2.00910E+01 -6.49110E-01  3.40819E-02  3.93151E-02 -9.45621E-01  7.08615E-05 -4.80571E-04  4.42196E-05 -1.03858E-02  1.88392E-01 -3.80479E-03  5.92224E-05  1.75900E-06  2.61837E-07  1.50000E+01
  2.03312E+01  2.03859E+01  2.00637E+01 -6.52060E-01  6.62916E-02  2.61562E-02 -9.51962E-01  6.23010E-05 -4.69684E-04  3.21022E-05 -7.26011E-03  2.95598E-01 -3.34865E-03  5.95410E-05  6.38310E-07  1.84829E-08  1.50000E+01
  2.03096E+01  2.03861E+01  2.00775E+01 -6.43656E-01 -1.84230E-02  3.94671E-02 -9.47072E-01  8.35646E-05 -4.55510E-04  2.88645E-05 -1.66735E-02  1.16808E-02 -1.29640E-03  5.81840E-05  3.65638E-06 -5.59631E-08  1.50000E+01
  2.03542E+01  2.03898E+01  2.01048E+01 -6.52133E-01  6.94507E-02  3.77838E-02 -9.07937E-01  6.36951E-05 -4.90329E-04  5.91667E-05 -6.18480E-03  3.22862E-01 -6.45123E-03  6.24245E-05  4.79522E-07  6.41838E-07  1.50000E+01
  2.03317E+01  2.03907E+01  2.01181E+01 -6.44254E-01 -1.31014E-02  5.47452E-02 -9.79135E-01  8.16622E-05 -4.71735E-04  5.11250E-05 -1.47857E-02  2.38435E-02 -2.72133E-03  5.70193E-05  3.39981E-06  9.04851E-07  1.50000E+01
  2.03533E+01  2.03933E+01  2.01320E+01 -6.48089E-01  2.36291E-02  5.26833E-02 -9.12883E-01  7.00053E-05 -4.47765E-04  6.19748E-05 -9.62542E-03  1.40509E-01 -4.92276E-03  5.68954E-05  2.04662E-06  7.43106E-07  1.50000E+01
  2.03540E+01  2.03869E+01  2.00768E+01 -6.54785E-01  1.00469E-01  2.58323E-02 -9.33170E-01  5.67556E-05 -5.01974E-04  4.70405E-05 -3.96224E-03  4.33637E-01 -4.20703E-03  6.34871E-05 -6.18455E-07  3.20166E-07  1.50000E+01
  2.03526E+01  2.03848E+01  2.00493E+01 -6.56448E-01  1.18923E-01  1.60083E-02 -9.47781E-01  4.87813E-05 -4.64886E-04  2.87873E-05 -2.91340E-03  4.58863E-01 -2.99762E-03  5.91768E-05 -1.16558E-06  1.36106E-07  1.50000E+01
  2.04375E+01  2.03858E+01  2.00902E+01 -6.61518E-01  1.54041E-01  1.19637E-02 -8.56780E-01  3.30416E-05 -3.43066E-04  4.62119E-05 -6.63896E-04  4.24966E-01 -1.62452E-03  4.52950E-05 -1.40214E-06  1.63576E-06  1.50000E+01
  2.04372E+01  2.03832E+01  2.00667E+01 -6.63048E-01  1.61232E-01  8.54398E-03 -8.82266E-01  3.48407E-05 -3.60500E-04  3.62667E-05 -8.75435E-04  4.58944E-01 -1.37240E-03  4.82053E-05 -1.65967E-06  1.50208E-06  1.50000E+01
  2.04374E+01  2.03893E+01  2.01135E+01 -6.59842E-01  1.44148E-01  1.61364E-02 -8.35783E-01  3.46485E-05 -3.46153E-04  5.76969E-05 -6.41605E-04  4.11905E-01 -2.17883E-03  4.63184E-05 -1.25406E-06  1.71055E-06  1.50000E+01
  2.04166E+01  2.03831E+01  2.00561E+01 -6.62290E-01  1.60522E-01  9.37583E-03 -8.95964E-01  3.46383E-05 -3.74945E-04  3.10304E-05 -1.47031E-03  4.72343E-01 -1.19839E-03  4.93018E-05 -1.85776E-06  9.98856E-07  1.50000E+01
  2.04365E+01  2.03813E+01  2.00425E+01 -6.64327E-01  1.66227E-01  5.58360E-03 -8.90906E-01  3.74604E-05 -3.83655E-04  2.49874E-05 -1.43137E-03  4.97650E-01 -7.50756E-04  5.20286E-05 -1.92410E-06  1.27249E-06  1.50000E+01
  2.03518E+01  2.03836E+01  2.00224E+01 -6.57423E-01  1.29021E-01  7.39524E-03 -9.54678E-01  4.54792E-05 -4.48395E-04  1.28327E-05 -2.48775E-03  4.74121E-01 -1.57528E-03  5.76606E-05 -1.44343E-06 -1.37415E-08  1.50000E+01
  2.03943E+01  2.03820E+01  2.00201E+01 -6.61816E-01  1.62105E-01  4.56922E-03 -9.27812E-01  3.87620E-05 -4.22718E-04  1.23926E-05 -1.41471E-03  5.33285E-01 -6.86838E-04  5.57799E-05 -2.24420E-06  2.78740E-07  1.50000E+01
  2.03728E+01  2.03826E+01  2.00082E+01 -6.59976E-01  1.52392E-01  2.59637E-03 -9.46067E-01  4.02618E-05 -4.35207E-04  5.04726E-06 -1.56179E-03  5.24384E-01 -6.41513E-04  5.64960E-05 -2.07642E-06  4.29590E-08  1.50000E+01
  2.03316E+01  2.03935E+01  2.01447E+01 -6.36555E-01 -7.55550E-02  7.23197E-02 -9.37829E-01  9.65325E-05 -4.48826E-04  5.02906E-05 -2.14026E-02 -1.82140E-01  6.04040E-04  5.55363E-05  5.47893E-06  4.98235E-07  1.50000E+01
  2.03529E+01  2.03969E+01  2.01581E+01 -6.42079E-01 -3.39350E-02  6.96048E-02 -9.15288E-01  8.52676E-05 -4.28076E-04  6.30392E-05 -1.53087E-02 -4.73183E-02 -2.69657E-03  5.71842E-05  4.16905E-06  1.09125E-06  1.50000E+01
  2.07658E+01  2.04428E+01  1.97095E+01 -6.28567E-01  1.88887E-01  8.54909E-02 -5.77469E-01  7.77202E-05 -2.48668E-04 -1.29492E-04 -1.87501E-03  6.01654E-01  3.19911E-03  5.08700E-05  1.18227E-05 -1.45909E-05  1.50000E+01
  2.07455E+01  2.04356E+01  1.97218E+01 -6.33613E-01  1.89887E-01  7.70590E-02 -5.98737E-01  7.50687E-05 -2.75967E-04 -1.33832E-04 -1.60802E-03  6.03371E-01  2.82318E-03  5.10292E-05  1.04046E-05 -1.45207E-05  1.50000E+01
  2.07662E+01  2.04325E+01  1.97338E+01 -6.32626E-01  2.07565E-01  8.11347E-02 -5.15911E-01  7.34126E-05 -2.42824E-04 -1.20158E-04 -1.59420E-03  6.59551E-01  2.89690E-03  5.03238E-05  1.06549E-05 -1.46768E-05  1.50000E+01
  2.07458E+01  2.04258E+01  1.97463E+01 -6.37217E-01  2.06897E-01  7.26761E-02 -5.87544E-01  7.11418E-05 -2.69064E-04 -1.23780E-04 -1.40362E-03  6.56241E-01  2.56347E-03  5.14322E-05  9.58671E-06 -1.50878E-05  1.50000E+01
  2.07664E+01  2.04227E+01  1.97583E+01 -6.36016E-01  2.23630E-01  7.58291E-02 -4.86862E-01  6.96117E-05 -2.33279E-04 -1.09189E-04 -1.36980E-03  7.09152E-01  2.54443E-03  5.10167E-05  9.74112E-06 -1.50545E-05  1.50000E+01
  2.08261E+01  2.04681E+01  1.96739E+01 -6.09026E-01  1.70351E-01  1.05571E-01 -3.05291E-01  6.37521E-05 -5.99282E-05 -5.40946E-05 -2.63936E-03  5.45557E-01  3.66551E-03  5.11582E-05  1.61777E-05 -1.47975E-05  1.50000E+01
  2.08061E+01  2.04591E+01  1.96855E+01 -6.16388E-01  1.79328E-01  9.99387E-02 -4.06129E-01  7.46830E-05 -1.55475E-04 -9.84522E-05 -2.37994E-03  5.73365E-01  3.62457E-03  5.00225E-05  1.45719E-05 -1.46991E-05  1.50000E+01
  2.08267E+01  2.04561E+01  1.96978E+01 -6.15281E-01  1.95688E-01  1.02715E-01 -2.61217E-01  6.40631E-05 -6.39972E-05 -5.44009E-05 -2.24908E-03  6.24742E-01  3.33969E-03  5.25334E-05  1.54030E-05 -1.53002E-05  1.50000E+01
  2.04370E+01  2.03934E+01  2.01371E+01 -6.57939E-01  1.30638E-01  2.13558E-02 -8.62318E-01  3.81939E-05 -3.62170E-04  7.10777E-05 -1.10569E-03  3.96901E-01 -3.75980E-03  4.90206E-05 -1.04599E-06  1.82653E-06  1.50000E+01
  2.08273E+01  2.04446E+01  1.97219E+01 -6.20411E-01  2.17551E-01  9.83907E-02 -2.53682E-01  6.65807E-05 -9.07834E-05 -6.44506E-05 -1.90191E-03  6.92936E-01  2.97684E-03  5.33248E-05  1.42855E-05 -1.54300E-05  1.50000E+01
  2.08474E+01  2.04531E+01  1.97102E+01 -6.13974E-01  2.10957E-01  1.04614E-01 -8.36089E-02  6.01994E-05 -2.83086E-05 -3.70214E-05 -2.11885E-03  6.72814E-01  3.09985E-03  5.35490E-05  1.56665E-05 -1.53556E-05  1.50000E+01
  2.04570E+01  2.03798E+01  2.00292E+01 -6.65926E-01  1.68979E-01  3.00494E-03 -8.79443E-01  3.89651E-05 -3.83833E-04  1.76811E-05 -1.44990E-03  5.08009E-01 -4.09851E-04  5.30191E-05 -1.85033E-06  1.23051E-06  1.50000E+01
  2.04361E+01  2.03802E+01  2.00176E+01 -6.65076E-01  1.69047E-01  2.73425E-03 -8.97102E-01  3.90866E-05 -3.96452E-04  1.08419E-05 -1.55577E-03  5.18883E-01 -2.89773E-04  5.45117E-05 -2.10081E-06  5.97793E-07  1.50000E+01
  2.03744E+01  2.03959E+01  2.01460E+01 -6.50257E-01  4.76470E-02  4.99809E-02 -8.99191E-01  6.09721E-05 -4.18703E-04  7.04643E-05 -6.04727E-03  2.02485E-01 -5.57114E-03  5.51877E-05  1.19210E-06  1.01646E-06  1.50000E+01
  2.03740E+01  2.04001E+01  2.01713E+01 -6.45477E-01 -2.84317E-03  6.56274E-02 -9.11536E-01  7.56545E-05 -4.13647E-04  7.48477E-05 -1.08035E-02  4.76762E-02 -5.21681E-03  5.70693E-05  3.17004E-06  2.14165E-06  1.50000E+01
  2.03952E+01  2.03985E+01  2.01596E+01 -6.51605E-01  6.47515E-02  4.63317E-02 -8.97644E-01  5.81426E-05 -3.99692E-04  7.93149E-05 -4.05546E-03  2.41315E-01 -6.72064E-03  5.69103E-05  8.50234E-07  2.33709E-06  1.50000E+01
  2.03513E+01  2.03833E+01  1.99960E+01 -6.57745E-01  1.31480E-01 -6.78113E-04 -9.58536E-01  4.43301E-05 -4.37565E-04 -2.15852E-06 -2.40068E-03  4.72219E-01 -3.49074E-05  5.67254E-05 -1.48605E-06 -6.65519E-08  1.50000E+01
  2.03938E+01  2.03817E+01  1.99943E+01 -6.62028E-01  1.63345E-01 -3.83634E-04 -9.31284E-01  3.89888E-05 -4.21776E-04 -3.42134E-06 -1.45565E-03  5.36399E-01  1.52136E-04  5.59769E-05 -2.27932E-06 -1.21554E-07  1.50000E+01
  2.03724E+01  2.03828E+01  1.99822E+01 -6.59918E-01  1.51365E-01 -3.71552E-03 -9.45121E-01  4.00987E-05 -4.26996E-04 -1.03890E-05 -1.53754E-03  5.14997E-01  7.08295E-04  5.57436E-05 -2.01615E-06 -1.69063E-07  1.50000E+01
  2.07873E+01  2.04107E+01  1.97953E+01 -6.37176E-01  2.51380E-01  7.06533E-02 -3.46262E-01  6.34077E-05 -1.85126E-04 -7.90390E-05 -1.10618E-03  7.95171E-01  1.94695E-03  5.03688E-05  7.68970E-06 -1.21703E-05  1.50000E+01
  2.08077E+01  2.04168E+01  1.97828E+01 -6.32797E-01  2.52478E-01  7.84025E-02 -2.81841E-01  6.74739E-05 -1.65655E-04 -7.87218E-05 -1.19970E-03  7.99996E-01  2.05138E-03  5.27037E-05  9.45903E-06 -1.30981E-05  1.50000E+01
  2.07871E+01  2.04197E+01  1.97705E+01 -6.34532E-01  2.38810E-01  7.76881E-02 -3.63429E-01  6.69932E-05 -1.94613E-04 -9.18149E-05 -1.29712E-03  7.56868E-01  2.34947E-03  5.05651E-05  9.40315E-06 -1.38263E-05  1.50000E+01
  2.04576E+01  2.03868E+01  2.01019E+01 -6.62009E-01  1.54175E-01  1.02651E-02 -8.57072E-01  3.55822E-05 -3.56569E-04  5.50076E-05 -8.77456E-04  4.48154E-01 -1.53800E-03  4.77679E-05 -1.27257E-06  2.37228E-06  1.50000E+01
  2.01065E+01  2.02192E+01  2.01913E+01 -4.87877E-02 -1.12520E+00 -9.67544E-04 -9.11026E-01  2.77844E-04 -1.31437E-04 -1.43196E-04  4.58857E-03 -3.53427E+00 -6.32183E-04  4.45826E-05  5.53366E-05  1.70794E-06  1.50000E+01
  2.00970E+01  2.01981E+01  2.02018E+01 -3.66854E-02 -1.13825E+00 -3.86540E-04 -1.12448E+00  3.83006E-04 -1.94896E-04 -2.23253E-04  2.86296E-03 -3.57381E+00  4.87675E-04  4.98814E-05  6.23548E-05  2.12367E-06  1.50000E+01
  2.01145E+01  2.02095E+01  2.02147E+01 -4.30326E-02 -1.12821E+00 -5.16410E-04 -6.25071E-01  3.27746E-04 -1.47207E-04 -1.85111E-04  3.67459E-03 -3.55205E+00  2.16933E-04  5.09079E-05  6.27876E-05  4.30584E-06  1.50000E+01
  2.08483E+01  2.04308E+01  1.97585E+01 -6.22856E-01  2.49464E-01  9.31850E-02 -9.83182E-02  6.63523E-05 -9.90928E-05 -6.17896E-05 -1.47441E-03  7.92772E-01  2.32955E-03  5.29740E-05  1.23775E-05 -1.37312E-05  1.50000E+01
  2.08685E+01  2.04387E+01  1.97468E+01 -6.17173E-01  2.45141E-01  1.00008E-01 -1.32788E-01  3.43855E-05 -4.70473E-05 -3.17454E-05  6.44965E-03  3.99113E-01  8.61939E-03  2.70651E-05  6.90095E-06 -7.08166E-06  1.50000E+01
  2.08479E+01  2.04416E+01  1.97343E+01 -6.18868E-01  2.31827E-01  9.95692E-02 -8.75951E-02  6.54988E-05 -7.26460E-05 -5.52585E-05 -1.77921E-03  7.37941E-01  2.73291E-03  5.40253E-05  1.42696E-05 -1.49206E-05  1.50000E+01
  2.07868E+01  2.04294E+01  1.97459E+01 -6.31348E-01  2.23777E-01  8.38762E-02 -5.55854E-01  7.16080E-05 -2.13137E-04 -1.07578E-04 -1.52935E-03  7.10662E-01  2.75458E-03  5.00198E-05  1.08903E-05 -1.47934E-05  1.50000E+01
  2.08074E+01  2.04264E+01  1.97582E+01 -6.29805E-01  2.38488E-01  8.54176E-02 -3.34575E-01  7.18781E-05 -1.81160E-04 -9.35261E-05 -1.43108E-03  7.57023E-01  2.48105E-03  5.21025E-05  1.10136E-05 -1.42624E-05  1.50000E+01
  2.03510E+01  2.03839E+01  1.99700E+01 -6.57395E-01  1.26319E-01 -8.78206E-03 -9.55751E-01  4.44770E-05 -4.27530E-04 -1.61639E-05 -2.58193E-03  4.50574E-01  1.60649E-03  5.55231E-05 -1.29819E-06 -1.22569E-07  1.50000E+01
  2.03305E+01  2.03844E+01  2.00366E+01 -6.53825E-01  8.56869E-02  1.47048E-02 -9.59050E-01  5.64894E-05 -4.55871E-04  1.84900E-05 -5.67134E-03  3.50667E-01 -2.26471E-03  5.85667E-05 -1.86530E-08 -8.47412E-08  1.50000E+01
  2.03301E+01  2.03838E+01  2.00098E+01 -6.54695E-01  9.42572E-02  4.27644E-03 -9.67401E-01  5.35667E-05 -4.44483E-04  4.96498E-06 -5.11183E-03  3.70700E-01 -8.63092E-04  5.76227E-05 -2.90399E-07 -6.47087E-08  1.50000E+01
  2.08055E+01  2.04710E+01  1.96616E+01 -6.09875E-01  1.53087E-01  1.02168E-01 -4.04671E-01  7.56352E-05 -1.47642E-04 -9.69977E-05 -2.76316E-03  4.91289E-01  3.92259E-03  4.96419E-05  1.53302E-05 -1.39312E-05  1.50000E+01
  2.07460E+01  2.04167E+01  1.97709E+01 -6.40255E-01  2.21562E-01  6.74713E-02 -5.00693E-01  6.75408E-05 -2.65248E-04 -1.12719E-04 -1.23338E-03  7.01255E-01  2.26209E-03  5.11423E-05  8.09165E-06 -1.39465E-05  1.50000E+01
  2.07666E+01  2.04136E+01  1.97830E+01 -6.38850E-01  2.37263E-01  6.96763E-02 -3.81655E-01  6.58166E-05 -2.18534E-04 -9.38313E-05 -1.18200E-03  7.50739E-01  2.16668E-03  5.11786E-05  8.01656E-06 -1.32859E-05  1.50000E+01
  2.03092E+01  2.03847E+01  2.00505E+01 -6.47354E-01  1.40156E-02  2.49323E-02 -9.59790E-01  7.52079E-05 -4.50744E-04  2.00991E-05 -1.31938E-02  1.21197E-01 -1.69317E-03  5.87682E-05  2.53892E-06 -5.76162E-08  1.50000E+01
  2.02875E+01  2.03829E+01  2.00375E+01 -6.38400E-01 -6.19272E-02  2.16734E-02 -9.59133E-01  9.58610E-05 -4.32909E-04  1.03027E-05 -2.22374E-02 -1.27289E-01  3.08719E-04  6.01850E-05  5.51815E-06 -6.25735E-08  1.50000E+01
  2.02879E+01  2.03838E+01  2.00643E+01 -6.33705E-01 -9.21565E-02  3.75602E-02 -9.51407E-01  1.03747E-04 -4.34670E-04  1.61026E-05 -2.54670E-02 -2.31286E-01  1.60980E-03  5.96683E-05  6.61143E-06 -1.10418E-08  1.50000E+01
  2.04575E+01  2.03836E+01  2.00780E+01 -6.63606E-01  1.60990E-01  7.44007E-03 -8.63462E-01  3.64202E-05 -3.61853E-04  4.33685E-05 -9.97106E-04  4.66561E-01 -1.10559E-03  4.89811E-05 -1.46276E-06  2.21750E-06  1.50000E+01
  2.04573E+01  2.03813E+01  2.00538E+01 -6.64954E-01  1.65875E-01  5.07894E-03 -8.70900E-01  3.82654E-05 -3.73364E-04  3.14167E-05 -1.20825E-03  4.89316E-01 -8.05045E-04  5.13270E-05 -1.67433E-06  1.99767E-06  1.50000E+01
  2.04776E+01  2.03787E+01  2.00163E+01 -6.67047E-01  1.70897E-01  1.37670E-03 -8.58791E-01  3.87413E-05 -3.78704E-04  9.81474E-06 -1.41835E-03  5.14455E-01 -1.96362E-04  5.19084E-05 -1.69656E-06  8.34448E-07  1.50000E+01
  2.04568E+01  2.03792E+01  2.00044E+01 -6.66381E-01  1.70308E-01  1.02665E-03 -8.81426E-01  3.87310E-05 -3.89772E-04  2.58193E-06 -1.51276E-03  5.18293E-01 -4.80928E-05  5.34177E-05 -1.91939E-06  1.16465E-07  1.50000E+01
  2.08071E+01  2.04367E+01  1.97338E+01 -6.26175E-01  2.21793E-01  9.14410E-02 -3.15868E-01  7.34014E-05 -1.73397E-04 -9.72506E-05 -1.72018E-03  7.05496E-01  2.88538E-03  5.21949E-05  1.26207E-05 -1.50932E-05  1.50000E+01
  2.08067E+01  2.04477E+01  1.97096E+01 -6.21759E-01  2.02153E-01  9.63266E-02 -5.15073E-01  7.45378E-05 -1.63923E-04 -9.87290E-05 -2.03272E-03  6.44609E-01  3.27765E-03  5.16850E-05  1.39734E-05 -1.54918E-05  1.50000E+01
  2.07251E+01  2.04291E+01  1.97343E+01 -6.38122E-01  1.88842E-01  6.81631E-02 -6.98314E-01  7.21503E-05 -3.11145E-04 -1.40074E-04 -1.40608E-03  5.98586E-01  2.38054E-03  5.08676E-05  9.04282E-06 -1.45131E-05  1.50000E+01
  2.03102E+01  2.03900E+01  2.01313E+01 -6.27476E-01 -1.31491E-01  7.33757E-02 -8.73890E-01  1.10447E-04 -4.37801E-04  3.40701E-05 -2.87722E-02 -3.68395E-01  4.82874E-03  5.53085E-05  7.51336E-06  4.95180E-07  1.50000E+01
  2.02894E+01  2.03868E+01  2.01447E+01 -5.93264E-01 -2.85591E-01  8.90512E-02 -9.18371E-01  1.53743E-04 -4.18683E-04  9.18034E-06 -4.21299E-02 -8.87189E-01  1.55955E-02  5.57927E-05  1.34717E-05 -7.20962E-07  1.50000E+01
  2.03105E+01  2.03918E+01  2.01577E+01 -6.11819E-01 -2.12628E-01  9.16512E-02 -9.63284E-01  1.35660E-04 -4.38377E-04  2.72551E-05 -3.68560E-02 -6.34356E-01  1.13345E-02  5.55985E-05  1.05511E-05 -4.61470E-07  1.50000E+01
  2.08277E+01  2.04337E+01  1.97461E+01 -6.24608E-01  2.36189E-01  9.27461E-02 -1.61209E-01  6.86133E-05 -1.20222E-04 -7.26770E-05 -1.59362E-03  7.50804E-01  2.58091E-03  5.31226E-05  1.26216E-05 -1.45392E-05  1.50000E+01
  2.07451E+01  2.04459E+01  1.96975E+01 -6.29334E-01  1.70402E-01  8.05603E-02 -6.73716E-01  8.12288E-05 -2.94606E-04 -1.48901E-04 -1.86347E-03  5.42640E-01  3.04081E-03  5.11358E-05  1.14984E-05 -1.45822E-05  1.50000E+01
  2.07248E+01  2.04389E+01  1.97099E+01 -6.34308E-01  1.71099E-01  7.16206E-02 -6.74035E-01  7.48499E-05 -3.10561E-04 -1.47415E-04 -1.58507E-03  5.43106E-01  2.53225E-03  5.01972E-05  9.85620E-06 -1.42532E-05  1.50000E+01
  2.03950E+01  2.04033E+01  2.01843E+01 -6.47617E-01  2.10239E-02  6.06406E-02 -9.10646E-01  6.80346E-05 -4.05397E-04  8.57965E-05 -7.69187E-03  1.16384E-01 -7.17796E-03  5.65212E-05  2.43084E-06  3.04302E-06  1.50000E+01
  2.04160E+01  2.04011E+01  2.01726E+01 -6.52452E-01  7.77351E-02  4.19825E-02 -8.92445E-01  5.52013E-05 -3.89503E-04  8.82182E-05 -2.86804E-03  2.72774E-01 -7.20569E-03  5.71316E-05  6.31083E-07  3.60968E-06  1.50000E+01
  2.03739E+01  2.04044E+01  2.01965E+01 -6.38018E-01 -6.70044E-02  8.39136E-02 -9.29847E-01  9.00013E-05 -4.18746E-04  7.46167E-05 -1.81141E-02 -1.48031E-01 -2.18494E-03  5.53882E-05  5.37968E-06  2.37709E-06  1.50000E+01
  2.03935E+01  2.03824E+01  1.99687E+01 -6.61633E-01  1.60485E-01 -5.41968E-03 -9.26595E-01  3.85400E-05 -4.16312E-04 -1.88715E-05 -1.33529E-03  5.26179E-01  1.18329E-03  5.49485E-05 -2.15167E-06 -5.00643E-07  1.50000E+01
  2.07860E+01  2.04507E+01  1.96974E+01 -6.22863E-01  1.85456E-01  9.31926E-02 -4.59779E-01  7.76485E-05 -2.08711E-04 -1.18219E-04 -2.12155E-03  5.92001E-01  3.47706E-03  4.99755E-05  1.31640E-05 -1.46896E-05  1.50000E+01
  2.07855E+01  2.04620E+01  1.96733E+01 -6.17252E-01  1.61745E-01  9.61107E-02 -4.66936E-01  7.94337E-05 -1.96408E-04 -1.16449E-04 -2.45574E-03  5.17826E-01  3.77255E-03  4.98337E-05  1.39341E-05 -1.39011E-05  1.50000E+01
  2.07654E+01  2.04537E+01  1.96853E+01 -6.23692E-01  1.67422E-01  8.88269E-02 -5.64817E-01  8.18548E-05 -2.46335E-04 -1.33878E-04 -2.14827E-03  5.34722E-01  3.47824E-03  5.08951E-05  1.27423E-05 -1.41803E-05  1.50000E+01
  2.07044E+01  2.04324E+01  1.97224E+01 -6.38738E-01  1.70023E-01  6.23325E-02 -7.37000E-01  7.10946E-05 -3.45790E-04 -1.53849E-04 -1.39659E-03  5.38092E-01  2.02095E-03  5.04814E-05  8.62485E-06 -1.43868E-05  1.50000E+01
  2.04782E+01  2.03880E+01  2.01140E+01 -6.62195E-01  1.54143E-01  7.99143E-03 -8.37962E-01  3.75764E-05 -3.49265E-04  6.07671E-05 -9.86555E-04  4.57983E-01 -1.45606E-03  4.89030E-05 -1.04397E-06  3.15699E-06  1.50000E+01
  2.04576E+01  2.03907E+01  2.01257E+01 -6.60197E-01  1.45039E-01  1.37467E-02 -8.32835E-01  3.68951E-05 -3.52592E-04  6.57624E-05 -8.54906E-04  4.31890E-01 -2.29842E-03  4.85013E-05 -1.13893E-06  2.35261E-06  1.50000E+01
  2.03099E+01  2.03880E+01  2.01045E+01 -6.37469E-01 -6.66374E-02  5.56753E-02 -9.41969E-01  9.44068E-05 -4.51720E-04  3.42630E-05 -2.19351E-02 -1.52291E-01  7.26282E-04  5.61590E-05  5.23509E-06  2.53775E-07  1.50000E+01
  2.02883E+01  2.03848E+01  2.00912E+01 -6.25653E-01 -1.39495E-01  5.44384E-02 -9.34900E-01  1.14748E-04 -4.31007E-04  1.87495E-05 -3.03606E-02 -3.93983E-01  4.47085E-03  5.78964E-05  8.16839E-06 -9.46617E-08  1.50000E+01
  2.01053E+01  2.01878E+01  2.02248E+01 -3.25971E-02 -1.14117E+00  0.00000E+00 -4.22551E-01  2.06551E-04 -1.01322E-04 -1.21904E-04  5.01457E-02  2.99049E+01 -3.07167E+01  2.76801E-05  3.31032E-05  3.23563E-06  1.50000E+01
  2.08673E+01  2.04621E+01  1.96988E+01 -6.06771E-01  2.01895E-01  1.10007E-01 -6.84759E-02  2.91901E-05 -5.28255E-06 -1.48412E-05  7.07648E-03  3.28845E-01  8.98148E-03  2.68734E-05  8.43243E-06 -7.75538E-06  1.50000E+01
  2.08467E+01  2.04651E+01  1.96863E+01 -6.07981E-01  1.86581E-01  1.08141E-01 -5.96095E-02  5.67883E-05  3.08346E-06 -2.33622E-05 -2.50728E-03  5.96595E-01  3.42791E-03  5.40896E-05  1.72445E-05 -1.57881E-05  1.50000E+01
  2.07244E+01  2.04491E+01  1.96856E+01 -6.29829E-01  1.51107E-01  7.42996E-02 -6.98622E-01  7.89022E-05 -3.11965E-04 -1.54415E-04 -1.81195E-03  4.80508E-01  2.65999E-03  4.94726E-05  1.04243E-05 -1.35325E-05  1.50000E+01
  2.07041E+01  2.04422E+01  1.96981E+01 -6.34736E-01  1.51904E-01  6.49052E-02 -7.18625E-01  7.40952E-05 -3.34344E-04 -1.56535E-04 -1.56267E-03  4.81235E-01  2.10212E-03  5.06731E-05  9.29177E-06 -1.39007E-05  1.50000E+01
  2.03298E+01  2.03839E+01  1.99835E+01 -6.54723E-01  9.26395E-02 -5.80268E-03 -9.70207E-01  5.31007E-05 -4.33939E-04 -7.97682E-06 -5.25558E-03  3.59880E-01  7.42070E-04  5.66828E-05 -2.29759E-07 -2.15324E-08  1.50000E+01
  2.04576E+01  2.03953E+01  2.01497E+01 -6.58126E-01  1.32891E-01  1.81773E-02 -8.57445E-01  4.12480E-05 -3.64106E-04  7.98798E-05 -9.71561E-04  4.08027E-01 -3.53370E-03  5.22518E-05 -7.90522E-07  3.33393E-06  1.50000E+01
  2.03317E+01  2.03962E+01  2.01707E+01 -6.24313E-01 -1.53041E-01  9.12160E-02 -9.06433E-01  1.18612E-04 -4.30134E-04  4.44684E-05 -3.01673E-02 -4.29941E-01  6.40695E-03  5.63505E-05  8.42962E-06  2.22269E-07  1.50000E+01
  2.03529E+01  2.04004E+01  2.01837E+01 -6.32570E-01 -1.05287E-01  8.84491E-02 -9.26865E-01  1.06300E-04 -4.23154E-04  6.11433E-05 -2.36536E-02 -2.70605E-01  1.78369E-03  5.92619E-05  7.19099E-06  2.00188E-06  1.50000E+01
  2.01164E+01  2.02398E+01  2.01803E+01 -6.44805E-02 -1.10976E+00 -1.13328E-03 -9.57800E-01  2.80173E-04 -1.45180E-04 -1.32737E-04  6.51270E-03 -3.49696E+00 -1.47392E-03  4.13610E-05  4.81685E-05  4.05023E-06  1.50000E+01
  2.00995E+01  2.02279E+01  2.01672E+01 -5.55202E-02 -1.12253E+00 -1.06393E-03 -1.07001E+00  2.55472E-04 -1.18377E-04 -1.11448E-04  4.90121E-03 -3.51411E+00 -8.57669E-04  4.44986E-05  5.35250E-05  2.09153E-06  1.50000E+01
  2.07848E+01  2.04737E+01  1.96494E+01 -6.10496E-01  1.34720E-01  9.77708E-02 -4.19827E-01  8.03716E-05 -1.78975E-04 -1.10050E-04 -2.82084E-03  4.33131E-01  4.02353E-03  4.93472E-05  1.44670E-05 -1.28772E-05  1.50000E+01
  2.02662E+01  2.03802E+01  2.00246E+01 -6.21364E-01 -1.64480E-01  1.59607E-02 -9.63646E-01  1.23680E-04 -4.11584E-04  3.24160E-06 -3.26674E-02 -4.67100E-01  1.60444E-03  6.14887E-05  9.63611E-06 -6.80421E-08  1.50000E+01
  2.02665E+01  2.03805E+01  2.00513E+01 -6.15901E-01 -1.89578E-01  3.29836E-02 -9.51615E-01  1.31319E-04 -4.15899E-04  5.92093E-06 -3.48805E-02 -5.55757E-01  3.97944E-03  6.17822E-05  1.07272E-05  4.36124E-09  1.50000E+01
  2.04781E+01  2.03844E+01  2.00898E+01 -6.63873E-01  1.60747E-01  5.80080E-03 -8.47416E-01  3.78745E-05 -3.60306E-04  5.03261E-05 -1.06162E-03  4.73948E-01 -1.02133E-03  4.95609E-05 -1.21954E-06  3.00655E-06  1.50000E+01
  2.04780E+01  2.03816E+01  2.00655E+01 -6.65289E-01  1.65667E-01  4.05434E-03 -8.53590E-01  3.96524E-05 -3.66382E-04  3.79356E-05 -1.18111E-03  4.89530E-01 -7.26883E-04  5.16519E-05 -1.43956E-06  2.70568E-06  1.50000E+01
  2.02902E+01  2.03871E+01  2.01712E+01 -5.64677E-01 -3.81667E-01  1.03845E-01 -9.27263E-01  1.89121E-04 -4.30321E-04 -5.42796E-06 -4.50820E-02 -1.21202E+00  2.29356E-02  5.65621E-05  1.76510E-05 -1.41400E-06  1.50000E+01
  2.02712E+01  2.03791E+01  2.01848E+01 -4.90985E-01 -5.61933E-01  1.01884E-01 -9.69468E-01  2.49790E-04 -4.07709E-04 -4.69359E-05 -3.44789E-02 -1.83374E+00  2.56286E-02  5.86180E-05  2.70047E-05 -1.79128E-06  1.50000E+01
  2.02915E+01  2.03865E+01  2.01975E+01 -5.25126E-01 -4.88366E-01  1.13724E-01 -9.11670E-01  2.22808E-04 -4.15005E-04 -2.75780E-05 -4.20989E-02 -1.57479E+00  2.86478E-02  5.69223E-05  2.27228E-05 -1.83694E-06  1.50000E+01
  2.06836E+01  2.04359E+01  1.97107E+01 -6.39080E-01  1.51267E-01  5.53221E-02 -7.44518E-01  6.86723E-05 -3.53939E-04 -1.56779E-04 -1.41335E-03  4.77737E-01  1.61794E-03  5.12331E-05  7.92452E-06 -1.36359E-05  1.50000E+01
  2.03088E+01  2.03838E+01  2.00237E+01 -6.49366E-01  3.20109E-02  1.17098E-02 -9.64999E-01  7.01026E-05 -4.43670E-04  9.62514E-06 -1.13881E-02  1.79070E-01 -1.10248E-03  5.85810E-05  1.90580E-06 -9.84306E-08  1.50000E+01
  2.03085E+01  2.03836E+01  1.99972E+01 -6.50043E-01  3.66477E-02 -8.11569E-04 -9.67075E-01  6.80388E-05 -4.34309E-04 -1.14585E-06 -1.10107E-02  1.91784E-01 -9.39689E-05  5.79408E-05  1.72840E-06 -2.77201E-08  1.50000E+01
  2.04778E+01  2.03797E+01  2.00410E+01 -6.66377E-01  1.69039E-01  2.62319E-03 -8.56029E-01  4.01758E-05 -3.73141E-04  2.45948E-05 -1.31077E-03  5.03932E-01 -4.75007E-04  5.28591E-05 -1.61468E-06  2.14779E-06  1.50000E+01
  2.07648E+01  2.04649E+01  1.96613E+01 -6.17854E-01  1.42996E-01  9.10884E-02 -5.65935E-01  8.40222E-05 -2.32327E-04 -1.30973E-04 -2.45892E-03  4.58076E-01  3.70408E-03  5.05849E-05  1.33261E-05 -1.31967E-05  1.50000E+01
  2.07447E+01  2.04567E+01  1.96733E+01 -6.24246E-01  1.48315E-01  8.31524E-02 -6.29586E-01  8.42829E-05 -2.85459E-04 -1.49467E-04 -2.10959E-03  4.73457E-01  3.23757E-03  5.08661E-05  1.20276E-05 -1.35347E-05  1.50000E+01
  2.02888E+01  2.03859E+01  2.01180E+01 -6.12830E-01 -2.04184E-01  7.19590E-02 -9.08374E-01  1.28195E-04 -4.15730E-04  1.63787E-05 -3.64008E-02 -6.13304E-01  9.16777E-03  5.52834E-05  1.01995E-05 -4.10237E-07  1.50000E+01
  2.02676E+01  2.03813E+01  2.01049E+01 -5.90100E-01 -2.94053E-01  6.72406E-02 -9.50702E-01  1.58912E-04 -4.11475E-04  1.18908E-06 -4.17427E-02 -9.18800E-01  1.22911E-02  6.02345E-05  1.48320E-05 -9.78479E-07  1.50000E+01
  2.05189E+01  2.03773E+01  1.99904E+01 -6.67909E-01  1.76407E-01  5.48295E-04 -8.11004E-01  3.95618E-05 -3.63753E-04 -5.86848E-06 -1.32719E-03  5.35265E-01  2.02775E-05  5.04517E-05 -1.40618E-06 -6.02109E-07  1.50000E+01
  2.04981E+01  2.03782E+01  1.99783E+01 -6.67639E-01  1.72711E-01  9.65230E-05 -8.35928E-01  3.97096E-05 -3.73792E-04 -1.34020E-05 -1.39944E-03  5.25699E-01  1.40619E-04  5.17185E-05 -1.52718E-06 -1.34014E-06  1.50000E+01
  2.04983E+01  2.03778E+01  2.00034E+01 -6.67701E-01  1.73188E-01  5.74257E-04 -8.36089E-01  3.89100E-05 -3.71825E-04  1.89048E-06 -1.37609E-03  5.23204E-01 -6.86969E-05  5.08181E-05 -1.54454E-06  1.61989E-07  1.50000E+01
  2.07642E+01  2.04764E+01  1.96373E+01 -6.10886E-01  1.15428E-01  9.22530E-02 -5.33499E-01  8.54024E-05 -2.16478E-04 -1.25449E-04 -2.80405E-03  3.71458E-01  3.91682E-03  5.02108E-05  1.37754E-05 -1.20523E-05  1.50000E+01
  2.04782E+01  2.03975E+01  2.01624E+01 -6.58085E-01  1.34451E-01  1.44551E-02 -8.53846E-01  4.38051E-05 -3.63367E-04  8.79079E-05 -9.71341E-04  4.13594E-01 -3.16705E-03  5.48077E-05 -4.12228E-07  4.96739E-06  1.50000E+01
  2.04782E+01  2.03924E+01  2.01382E+01 -6.60270E-01  1.45552E-01  1.07942E-02 -8.27906E-01  3.85730E-05 -3.45559E-04  7.17329E-05 -9.53012E-04  4.39041E-01 -2.12406E-03  4.94511E-05 -9.05633E-07  3.12600E-06  1.50000E+01
  2.02670E+01  2.03809E+01  2.00781E+01 -6.05907E-01 -2.32912E-01  5.02456E-02 -9.59345E-01  1.43338E-04 -4.15644E-04  6.03553E-06 -3.81657E-02 -7.07206E-01  7.48178E-03  6.17195E-05  1.25506E-05  1.17089E-07  1.50000E+01
  2.03120E+01  2.03935E+01  2.02101E+01 -5.53106E-01 -4.18954E-01  1.21916E-01 -9.71485E-01  1.98034E-04 -4.09821E-04 -7.28735E-06 -4.57258E-02 -1.32710E+00  2.87335E-02  5.71033E-05  1.95656E-05 -2.08138E-06  1.50000E+01
  2.03326E+01  2.03999E+01  2.02225E+01 -5.75286E-01 -3.55230E-01  1.26319E-01 -9.62161E-01  1.79405E-04 -4.18488E-04  1.35192E-05 -4.57066E-02 -1.10023E+00  2.61835E-02  5.94531E-05  1.74373E-05 -7.07297E-07  1.50000E+01
  2.03320E+01  2.03985E+01  2.01966E+01 -6.04905E-01 -2.46582E-01  1.10085E-01 -9.30805E-01  1.47224E-04 -4.24186E-04  3.29532E-05 -3.93065E-02 -7.35951E-01  1.54209E-02  5.89150E-05  1.25793E-05 -4.08035E-07  1.50000E+01
  2.00828E+01  2.02157E+01  2.01541E+01 -4.69713E-02 -1.13492E+00 -9.62477E-04 -1.14478E+00  2.27173E-04 -9.41953E-05 -8.98350E-05  3.54501E-03 -3.51837E+00 -4.61983E-04  4.41045E-05  5.35800E-05  1.58021E-06  1.50000E+01
  2.00725E+01  2.01957E+01  2.01653E+01 -3.44137E-02 -1.14737E+00 -7.01726E-04 -1.10582E+00  2.42005E-04 -9.83648E-05 -1.09069E-04  2.61855E-03 -3.52927E+00 -7.60661E-05  4.73956E-05  5.89936E-05  1.69855E-07  1.50000E+01