 TITLE="3D TRIANGULAR SURFACE DATA"
VARIABLES="X","Y","Z","U","V","W","P", "Fex", "Fey", "Fez","Finx","Finy","Finz","WSSx","WSSy","WSSz","AMForce"
 ZONE T="unstruc"N=        1757 E=        3355 F=FEPOINT  ET=TRIANGLE
  2.04336E+01  2.03729E+01  2.00905E+01 -4.07873E-01  1.69481E-01 -1.54450E-02 -3.04639E-01  3.25330E-05 -3.14592E-04  5.54230E-05 -7.77358E-04  6.95605E-01 -9.46297E-06  5.37917E-05 -2.51356E-06  6.41694E-06  1.50000E+01
  2.04562E+01  2.03715E+01  2.00908E+01 -4.03458E-01  1.80171E-01 -1.78519E-02 -2.73776E-01  1.51823E-05 -1.27381E-04  2.30067E-05 -2.50117E-03  3.47304E-01 -4.82542E-04  2.41648E-05 -1.12073E-06  3.31198E-06  1.50000E+01
  2.04518E+01  2.03691E+01  2.00709E+01 -4.03542E-01  1.81371E-01 -1.40090E-02 -2.37519E-01  2.12103E-05 -2.04329E-04  2.83153E-05 -4.55780E-04  5.15276E-01 -2.28211E-03  3.52148E-05 -1.85326E-06  4.06363E-06  1.50000E+01
  2.04297E+01  2.03784E+01  2.01195E+01 -4.09175E-01  1.62051E-01 -1.97038E-02 -3.23982E-01  3.01379E-05 -3.00281E-04  6.88808E-05 -9.56759E-04  5.62323E-01 -1.30248E-03  5.09970E-05 -1.66439E-06  8.66424E-06  1.50000E+01
  2.04519E+01  2.03752E+01  2.01105E+01 -4.04456E-01  1.73335E-01 -2.04802E-02 -3.17973E-01  2.32321E-05 -2.21432E-04  4.82666E-05 -9.08630E-04  4.89979E-01  2.12893E-03  3.91401E-05 -1.38686E-06  6.85302E-06  1.50000E+01
  2.04720E+01  2.03722E+01  2.01020E+01 -3.99778E-01  1.86868E-01 -2.17331E-02 -2.52564E-01  1.86688E-05 -1.63976E-04  3.35154E-05 -1.84246E-03  4.54920E-01 -1.01168E-03  3.07423E-05 -1.29795E-06  5.09481E-06  1.50000E+01
  2.04720E+01  2.03688E+01  2.00798E+01 -3.99177E-01  1.92058E-01 -1.71312E-02 -2.68941E-01  1.79755E-05 -1.67712E-04  2.65841E-05 -1.41062E-03  4.71479E-01  8.07006E-04  3.00879E-05 -1.50498E-06  4.41018E-06  1.50000E+01
  2.04495E+01  2.03667E+01  2.00459E+01 -4.03505E-01  1.83758E-01 -8.87935E-03 -3.39167E-01  2.10948E-05 -2.58730E-04  2.34311E-05 -6.87123E-04  5.70150E-01 -5.34854E-04  3.81416E-05 -2.19340E-06  3.21427E-06  1.50000E+01
  2.04295E+01  2.03694E+01  2.00613E+01 -4.08183E-01  1.72598E-01 -1.01479E-02 -2.92169E-01  2.59487E-05 -2.73094E-04  3.27540E-05 -1.03572E-03  6.04116E-01  9.10727E-04  4.35152E-05 -2.30583E-06  3.98837E-06  1.50000E+01
  2.04278E+01  2.03673E+01  2.00345E+01 -4.08131E-01  1.74749E-01 -5.54475E-03 -3.46231E-01  2.20027E-05 -2.94699E-04  2.03323E-05 -8.22689E-04  5.74648E-01  2.67084E-04  4.05455E-05 -2.34860E-06  2.46305E-06  1.50000E+01
  2.04497E+01  2.03803E+01  2.01348E+01 -4.05315E-01  1.65918E-01 -2.45597E-02 -3.27206E-01  2.61128E-05 -2.62220E-04  6.88017E-05 -9.38398E-04  5.04891E-01  5.31691E-04  4.49698E-05 -8.94271E-07  9.95237E-06  1.50000E+01
  2.04707E+01  2.03767E+01  2.01248E+01 -4.00283E-01  1.79612E-01 -2.57621E-02 -3.17293E-01  2.18308E-05 -2.25004E-04  5.46831E-05 -5.38716E-04  5.03773E-01  3.48756E-04  3.87152E-05 -1.12285E-06  7.86054E-06  1.50000E+01
  2.03858E+01  2.03760E+01  2.00900E+01 -4.16593E-01  1.57019E-01 -1.08448E-02 -3.16399E-01  2.83866E-05 -3.21602E-04  5.49420E-05 -8.55144E-04  5.57476E-01 -1.03481E-03  5.03565E-05 -2.65525E-06  4.40154E-06  1.50000E+01
  2.03854E+01  2.03724E+01  2.00630E+01 -4.16391E-01  1.60968E-01 -7.60493E-03 -3.15483E-01  2.49710E-05 -3.06965E-04  3.69401E-05 -1.01474E-03  5.60883E-01 -5.05537E-04  4.52096E-05 -2.65304E-06  2.48136E-06  1.50000E+01
  2.03637E+01  2.03755E+01  2.00763E+01 -4.19807E-01  1.56478E-01 -7.39364E-03 -3.04616E-01  2.56078E-05 -3.17576E-04  4.57819E-05 -7.13554E-04  5.38539E-01 -1.37618E-03  4.79397E-05 -2.93456E-06  2.65499E-06  1.50000E+01
  2.04083E+01  2.03769E+01  2.01041E+01 -4.12995E-01  1.59031E-01 -1.49202E-02 -3.18134E-01  3.04181E-05 -3.31063E-04  6.52637E-05 -1.29840E-03  5.96712E-01 -6.28313E-04  5.31420E-05 -2.38431E-06  6.36527E-06  1.50000E+01
  2.03857E+01  2.03808E+01  2.01166E+01 -4.16940E-01  1.51349E-01 -1.36307E-02 -3.02646E-01  3.05709E-05 -3.17884E-04  7.04750E-05 -6.55663E-04  5.27154E-01 -1.91554E-03  5.30311E-05 -2.37558E-06  6.56033E-06  1.50000E+01
  2.04073E+01  2.03823E+01  2.01309E+01 -4.13551E-01  1.52893E-01 -1.82851E-02 -3.17280E-01  2.80159E-05 -3.11285E-04  7.68843E-05 -6.70157E-04  5.22175E-01 -1.53675E-03  5.01057E-05 -1.77241E-06  7.67667E-06  1.50000E+01
  2.04081E+01  2.03726E+01  2.00764E+01 -4.12604E-01  1.63628E-01 -1.10452E-02 -3.11260E-01  2.79251E-05 -3.11938E-04  4.56662E-05 -1.18550E-03  6.14824E-01 -4.46067E-04  4.84144E-05 -2.57159E-06  3.94901E-06  1.50000E+01
  2.04069E+01  2.03696E+01  2.00490E+01 -4.12470E-01  1.66640E-01 -6.90572E-03 -2.86554E-01  2.47505E-05 -2.93112E-04  2.79426E-05 -9.67071E-04  5.73717E-01 -1.00772E-04  4.33278E-05 -2.46377E-06  2.66373E-06  1.50000E+01
  2.04911E+01  2.03691E+01  2.00909E+01 -3.94445E-01  2.03127E-01 -2.15435E-02 -2.39763E-01  1.89542E-05 -1.85128E-04  3.38128E-05 -1.24611E-03  5.46929E-01 -1.47075E-04  3.29774E-05 -1.54446E-06  5.72622E-06  1.50000E+01
  2.04908E+01  2.03659E+01  2.00672E+01 -3.93822E-01  2.08107E-01 -1.61384E-02 -3.18837E-01  1.78243E-05 -2.15783E-04  2.90420E-05 -9.98941E-04  5.81619E-01  3.51777E-05  3.39383E-05 -1.91804E-06  4.85414E-06  1.50000E+01
  2.04909E+01  2.03731E+01  2.01143E+01 -3.95052E-01  1.96339E-01 -2.66492E-02 -2.90378E-01  2.00646E-05 -1.97395E-04  4.47086E-05 -1.43376E-03  5.42667E-01 -3.87805E-04  3.53678E-05 -1.29474E-06  6.93396E-06  1.50000E+01
  2.04705E+01  2.03663E+01  2.00564E+01 -3.98653E-01  1.95104E-01 -1.23434E-02 -3.32161E-01  1.86430E-05 -2.28451E-04  2.56530E-05 -1.80206E-04  5.56808E-01 -4.59572E-04  3.47107E-05 -2.00110E-06  4.02127E-06  1.50000E+01
  2.04903E+01  2.03637E+01  2.00428E+01 -3.93288E-01  2.11376E-01 -1.05107E-02 -3.18422E-01  1.82259E-05 -2.41115E-04  2.12303E-05 -4.12989E-04  6.23157E-01 -3.34483E-04  3.60098E-05 -2.31354E-06  3.84667E-06  1.50000E+01
  2.04060E+01  2.03680E+01  2.00223E+01 -4.12355E-01  1.68420E-01 -2.85011E-03 -3.40121E-01  2.27633E-05 -3.02441E-04  1.34961E-05 -8.37342E-04  5.57560E-01  8.62045E-05  4.15787E-05 -2.48661E-06  1.33504E-06  1.50000E+01
  2.04484E+01  2.03653E+01  2.00201E+01 -4.03434E-01  1.85399E-01 -3.76194E-03 -3.41423E-01  2.08702E-05 -2.80722E-04  1.14943E-05 -6.21728E-04  5.85227E-01 -1.07406E-04  3.90447E-05 -2.40798E-06  1.59678E-06  1.50000E+01
  2.04270E+01  2.03663E+01  2.00082E+01 -4.08074E-01  1.75845E-01 -1.01021E-03 -3.45684E-01  2.15907E-05 -2.98068E-04  5.28817E-06 -6.70733E-04  5.67330E-01  2.00211E-04  4.01948E-05 -2.42808E-06  6.75533E-07  1.50000E+01
  2.03855E+01  2.03866E+01  2.01424E+01 -4.17429E-01  1.43423E-01 -1.56904E-02 -2.92493E-01  2.66824E-05 -3.08036E-04  8.10734E-05 -1.86429E-05  4.85437E-01 -3.42164E-03  4.91973E-05 -2.00485E-06  6.37970E-06  1.50000E+01
  2.04067E+01  2.03885E+01  2.01563E+01 -4.14189E-01  1.45334E-01 -2.10054E-02 -3.00628E-01  2.43905E-05 -2.99031E-04  8.57455E-05 -2.67522E-04  4.78012E-01 -2.67681E-03  4.65349E-05 -1.43552E-06  7.39940E-06  1.50000E+01
  2.08111E+01  2.04109E+01  1.96958E+01 -2.71410E-01  4.67199E-01  1.62190E-01 -5.43289E-01  3.65331E-05 -3.07309E-04 -1.80492E-04  2.23966E-03  1.47710E+00  3.05321E-03  3.54967E-05  1.00866E-05 -1.94752E-05  1.50000E+01
  2.07915E+01  2.04045E+01  1.97091E+01 -2.76970E-01  4.50665E-01  1.51843E-01 -5.84093E-01  2.78802E-05 -3.17650E-04 -1.75748E-04  2.05268E-03  1.42308E+00  2.64393E-03  3.56056E-05  8.81229E-06 -2.00032E-05  1.50000E+01
  2.08118E+01  2.03986E+01  1.97210E+01 -2.70048E-01  4.86480E-01  1.52592E-01 -4.93206E-01  3.28877E-05 -2.86020E-04 -1.56951E-04  1.96236E-03  1.53598E+00  2.51336E-03  3.57798E-05  8.49414E-06 -1.86414E-05  1.50000E+01
  2.07920E+01  2.03929E+01  1.97345E+01 -2.76307E-01  4.69194E-01  1.41608E-01 -4.75728E-01  2.52288E-05 -2.90765E-04 -1.49497E-04  1.75397E-03  1.47996E+00  2.15017E-03  3.58953E-05  7.22077E-06 -1.90229E-05  1.50000E+01
  2.08123E+01  2.03872E+01  1.97464E+01 -2.69307E-01  5.03277E-01  1.41467E-01 -4.71439E-01  3.00085E-05 -2.59993E-04 -1.32746E-04  1.67142E-03  1.58712E+00  1.99642E-03  3.58770E-05  7.10694E-06 -1.81131E-05  1.50000E+01
  2.08696E+01  2.04350E+01  1.96576E+01 -2.62383E-01  5.09248E-01  1.88923E-01 -4.43676E-01  5.98493E-05 -2.38899E-04 -1.72437E-04  2.36967E-03  1.61414E+00  3.92683E-03  3.75251E-05  1.44588E-05 -1.80105E-05  1.50000E+01
  2.08502E+01  2.04261E+01  1.96700E+01 -2.64095E-01  4.96777E-01  1.80934E-01 -5.15500E-01  5.34100E-05 -2.72109E-04 -1.81871E-04  2.38189E-03  1.57362E+00  3.72794E-03  3.61185E-05  1.28104E-05 -1.83044E-05  1.50000E+01
  2.08705E+01  2.04206E+01  1.96821E+01 -2.58080E-01  5.31501E-01  1.83128E-01 -4.10767E-01  5.46508E-05 -2.37356E-04 -1.60533E-04  2.15832E-03  1.68325E+00  3.33308E-03  3.72684E-05  1.26574E-05 -1.75197E-05  1.50000E+01
  2.04905E+01  2.03781E+01  2.01380E+01 -3.95579E-01  1.88064E-01 -3.14405E-02 -3.30675E-01  2.17876E-05 -2.34991E-04  6.35049E-05 -1.00717E-03  5.44754E-01  1.49790E-04  4.01078E-05 -7.40853E-07  9.87556E-06  1.50000E+01
  2.08713E+01  2.04071E+01  1.97069E+01 -2.54819E-01  5.51039E-01  1.74862E-01 -3.93360E-01  4.91960E-05 -2.04515E-04 -1.31417E-04  1.92211E-03  1.74372E+00  2.72253E-03  3.79582E-05  1.11990E-05 -1.73039E-05  1.50000E+01
  2.08909E+01  2.04152E+01  1.96943E+01 -2.52104E-01  5.64172E-01  1.85365E-01 -3.26170E-01  5.48442E-05 -1.75090E-04 -1.23638E-04  1.96070E-03  1.78663E+00  3.00147E-03  4.13613E-05  1.26924E-05 -1.67823E-05  1.50000E+01
  2.05105E+01  2.03614E+01  2.00296E+01 -3.87473E-01  2.29572E-01 -8.17550E-03 -2.96218E-01  1.83527E-05 -2.39402E-04  1.50311E-05 -4.57579E-04  6.86284E-01 -3.09753E-04  3.71373E-05 -2.66838E-06  3.14785E-06  1.50000E+01
  2.04899E+01  2.03625E+01  2.00178E+01 -3.93059E-01  2.13210E-01 -4.55155E-03 -3.25182E-01  1.90478E-05 -2.53937E-04  9.44009E-06 -3.70717E-04  6.46015E-01 -2.80544E-04  3.75288E-05 -2.61724E-06  1.74237E-06  1.50000E+01
  2.04283E+01  2.03842E+01  2.01453E+01 -4.09972E-01  1.55083E-01 -2.32957E-02 -3.30539E-01  2.68368E-05 -2.89177E-04  7.96246E-05 -8.72989E-04  5.00170E-01 -1.11212E-03  4.74398E-05 -1.01551E-06  9.52569E-06  1.50000E+01
  2.04277E+01  2.03908E+01  2.01701E+01 -4.10695E-01  1.47333E-01 -2.65804E-02 -2.81255E-01  2.40336E-05 -2.80713E-04  8.75830E-05 -6.08118E-04  4.68737E-01 -1.84147E-03  4.49719E-05 -6.92968E-07  9.19346E-06  1.50000E+01
  2.04489E+01  2.03863E+01  2.01593E+01 -4.06091E-01  1.58204E-01 -2.86031E-02 -2.97050E-01  2.43214E-05 -2.65416E-04  7.97186E-05 -1.02843E-03  4.86855E-01 -1.66523E-04  4.37128E-05 -4.49539E-07  1.02275E-05  1.50000E+01
  2.04056E+01  2.03676E+01  1.99959E+01 -4.12301E-01  1.69011E-01  1.13157E-03 -3.47352E-01  2.18801E-05 -3.06192E-04 -1.93177E-06 -7.34681E-04  5.47418E-01  1.97831E-04  4.08517E-05 -2.48183E-06 -2.51392E-07  1.50000E+01
  2.04479E+01  2.03650E+01  1.99942E+01 -4.03467E-01  1.85762E-01  1.30544E-03 -3.39690E-01  2.08117E-05 -2.86139E-04 -2.79453E-06 -5.35111E-04  5.85760E-01  9.67744E-05  3.91839E-05 -2.45039E-06 -3.04722E-07  1.50000E+01
  2.04266E+01  2.03665E+01  1.99822E+01 -4.08141E-01  1.75654E-01  3.45298E-03 -3.39517E-01  2.12985E-05 -2.95276E-04 -9.88961E-06 -6.34875E-04  5.59300E-01  2.33711E-04  3.97641E-05 -2.38538E-06 -1.15801E-06  1.50000E+01
  2.08329E+01  2.03715E+01  1.97845E+01 -2.62291E-01  5.48510E-01  1.27477E-01 -2.77172E-01  3.14665E-05 -1.96039E-04 -9.02309E-05  1.26142E-03  1.72746E+00  1.30130E-03  3.54953E-05  5.10002E-06 -1.51675E-05  1.50000E+01
  2.08528E+01  2.03767E+01  1.97709E+01 -2.56164E-01  5.66070E-01  1.39653E-01 -3.06331E-01  3.68390E-05 -1.89230E-04 -9.49213E-05  1.36027E-03  1.78564E+00  1.44461E-03  3.67398E-05  6.48215E-06 -1.55927E-05  1.50000E+01
  2.08325E+01  2.03818E+01  1.97586E+01 -2.62620E-01  5.35554E-01  1.40783E-01 -3.78437E-01  3.37427E-05 -2.24875E-04 -1.14040E-04  1.52988E-03  1.68874E+00  1.75394E-03  3.61059E-05  6.85987E-06 -1.69880E-05  1.50000E+01
  2.05110E+01  2.03695E+01  2.01029E+01 -3.89136E-01  2.15845E-01 -2.67142E-02 -2.57214E-01  1.86565E-05 -2.00196E-04  4.13571E-05 -1.21366E-03  6.17225E-01 -3.51392E-04  3.48014E-05 -1.48867E-06  7.13185E-06  1.50000E+01
  2.01138E+01  2.03205E+01  2.01913E+01 -9.71075E-02 -8.77212E-01  2.89158E-03 -7.05192E-01  3.09080E-04 -2.34293E-04 -1.66704E-04  1.81705E-02 -2.77640E+00 -8.73112E-03  4.29645E-05  4.04324E-05  2.37578E-06  1.50000E+01
  2.01022E+01  2.03013E+01  2.02019E+01 -6.69027E-02 -9.06499E-01 -7.62510E-05 -8.36255E-01  3.78549E-04 -2.67131E-04 -2.27453E-04  9.95773E-03 -2.85495E+00 -3.79308E-03  4.73133E-05  4.75328E-05  2.89937E-06  1.50000E+01
  2.01207E+01  2.03112E+01  2.02148E+01 -7.92778E-02 -8.86079E-01  1.02776E-03 -1.25188E+00  3.22456E-04 -2.12515E-04 -1.87978E-04  1.23311E-02 -2.80161E+00 -5.59859E-03  4.68318E-05  4.71121E-05  2.84978E-06  1.50000E+01
  2.08923E+01  2.03893E+01  1.97445E+01 -2.46362E-01  5.97947E-01  1.64765E-01 -2.23565E-01  4.45859E-05 -1.09879E-04 -7.12905E-05  1.48097E-03  1.89102E+00  1.85264E-03  3.98300E-05  9.14689E-06 -1.53405E-05  1.50000E+01
  2.09119E+01  2.03967E+01  1.97316E+01 -2.42738E-01  6.11829E-01  1.77586E-01 -4.97772E-02  2.29335E-05 -3.53252E-05 -2.81532E-05  1.04950E-02  1.01111E+00  1.65442E-02  2.06081E-05  5.19002E-06 -7.69530E-06  1.50000E+01
  2.08916E+01  2.04018E+01  1.97192E+01 -2.48793E-01  5.82293E-01  1.76183E-01 -2.14116E-01  4.81711E-05 -1.31886E-04 -9.04677E-05  1.72244E-03  1.84278E+00  2.40737E-03  4.00592E-05  1.09394E-05 -1.63383E-05  1.50000E+01
  2.08320E+01  2.03930E+01  1.97330E+01 -2.63441E-01  5.20378E-01  1.52803E-01 -4.18993E-01  3.64809E-05 -2.50291E-04 -1.36635E-04  1.81082E-03  1.64278E+00  2.26840E-03  3.59871E-05  8.17970E-06 -1.73846E-05  1.50000E+01
  2.08523E+01  2.03877E+01  1.97452E+01 -2.57069E-01  5.52375E-01  1.52593E-01 -4.05352E-01  3.91230E-05 -2.12330E-04 -1.15689E-04  1.62415E-03  1.74416E+00  1.94785E-03  3.64028E-05  8.04732E-06 -1.65798E-05  1.50000E+01
  2.04053E+01  2.03683E+01  1.99700E+01 -4.12367E-01  1.68396E-01  5.00516E-03 -3.33843E-01  2.22505E-05 -2.86463E-04 -1.61208E-05 -7.00198E-04  5.38037E-01  2.28299E-04  4.01232E-05 -2.36632E-06 -1.62447E-06  1.50000E+01
  2.03848E+01  2.03700E+01  2.00362E+01 -4.16249E-01  1.63517E-01 -4.16741E-03 -2.69225E-01  2.41417E-05 -2.93915E-04  2.08545E-05 -9.99289E-04  5.51178E-01 -1.73095E-04  4.30819E-05 -2.62134E-06  1.60563E-06  1.50000E+01
  2.03844E+01  2.03689E+01  2.00097E+01 -4.16126E-01  1.64822E-01 -7.03480E-04 -3.41111E-01  2.26396E-05 -3.03078E-04  5.94837E-06 -8.78694E-04  5.42320E-01  5.65257E-05  4.19397E-05 -2.61277E-06  4.55622E-07  1.50000E+01
  2.08493E+01  2.04406E+01  1.96456E+01 -2.68358E-01  4.72842E-01  1.85960E-01 -5.12498E-01  6.07750E-05 -2.85285E-04 -2.02045E-04  2.59611E-03  1.49933E+00  4.35308E-03  3.71015E-05  1.45901E-05 -1.87543E-05  1.50000E+01
  2.07925E+01  2.03821E+01  1.97601E+01 -2.76118E-01  4.85320E-01  1.30093E-01 -4.07894E-01  2.49054E-05 -2.48501E-04 -1.20563E-04  1.46322E-03  1.52844E+00  1.69414E-03  3.64647E-05  6.09184E-06 -1.89692E-05  1.50000E+01
  2.08127E+01  2.03767E+01  1.97722E+01 -2.69053E-01  5.17757E-01  1.29061E-01 -2.88320E-01  2.90085E-05 -2.13514E-04 -1.01990E-04  1.39030E-03  1.63035E+00  1.52451E-03  3.54680E-05  5.46866E-06 -1.66693E-05  1.50000E+01
  2.03634E+01  2.03725E+01  2.00498E+01 -4.19670E-01  1.60425E-01 -4.80237E-03 -3.11212E-01  2.36953E-05 -3.07257E-04  2.93016E-05 -9.17482E-04  5.43648E-01 -6.68540E-04  4.47199E-05 -2.86978E-06  1.48796E-06  1.50000E+01
  2.03418E+01  2.03729E+01  2.00367E+01 -4.22518E-01  1.61192E-01 -2.54761E-03 -3.04045E-01  2.21824E-05 -3.08164E-04  2.17170E-05 -7.04084E-04  5.40187E-01 -8.52588E-04  4.43638E-05 -3.10701E-06  8.59182E-07  1.50000E+01
  2.03420E+01  2.03753E+01  2.00630E+01 -4.22652E-01  1.56878E-01 -4.47519E-03 -2.97649E-01  2.39955E-05 -3.12573E-04  3.73559E-05 -4.92470E-04  5.32942E-01 -1.74646E-03  4.68814E-05 -3.17829E-06  1.73837E-06  1.50000E+01
  2.05110E+01  2.03659E+01  2.00788E+01 -3.88511E-01  2.22196E-01 -2.07797E-02 -3.17367E-01  1.71570E-05 -2.19319E-04  3.49518E-05 -1.01793E-03  6.36818E-01 -3.24279E-04  3.45671E-05 -1.87557E-06  6.07119E-06  1.50000E+01
  2.05108E+01  2.03631E+01  2.00544E+01 -3.87910E-01  2.26779E-01 -1.45846E-02 -3.08893E-01  1.74380E-05 -2.31971E-04  2.63646E-05 -7.30167E-04  6.63943E-01 -2.50702E-04  3.56852E-05 -2.27227E-06  5.19136E-06  1.50000E+01
  2.05309E+01  2.03593E+01  2.00165E+01 -3.81273E-01  2.48986E-01 -5.19772E-03 -2.67794E-01  1.74283E-05 -2.30616E-04  8.27472E-06 -5.01953E-04  7.49287E-01 -2.27331E-04  3.71850E-05 -2.97392E-06  2.04410E-06  1.50000E+01
  2.05103E+01  2.03607E+01  2.00044E+01 -3.87319E-01  2.30582E-01 -1.56207E-03 -2.93151E-01  1.88555E-05 -2.44570E-04  2.25077E-06 -4.47763E-04  6.98368E-01 -2.36145E-04  3.78674E-05 -2.86718E-06  4.37091E-07  1.50000E+01
  2.08517E+01  2.03996E+01  1.97198E+01 -2.58601E-01  5.36373E-01  1.63972E-01 -4.04096E-01  4.31051E-05 -2.29851E-04 -1.36084E-04  1.87559E-03  1.69549E+00  2.49352E-03  3.61995E-05  9.60698E-06 -1.72816E-05  1.50000E+01
  2.08510E+01  2.04125E+01  1.96947E+01 -2.60893E-01  5.17900E-01  1.73514E-01 -4.29156E-01  4.77289E-05 -2.51075E-04 -1.58251E-04  2.13834E-03  1.63905E+00  3.10265E-03  3.64949E-05  1.12884E-05 -1.80060E-05  1.50000E+01
  2.07717E+01  2.03988E+01  1.97227E+01 -2.83677E-01  4.33429E-01  1.41142E-01 -5.25441E-01  2.04808E-05 -3.15471E-04 -1.65466E-04  1.74267E-03  1.36723E+00  2.22454E-03  3.59293E-05  7.53700E-06 -2.03865E-05  1.50000E+01
  2.03640E+01  2.03849E+01  2.01286E+01 -4.20453E-01  1.41354E-01 -1.07036E-02 -2.83130E-01  2.82223E-05 -3.10189E-04  7.40250E-05  2.01246E-04  4.85490E-01 -4.18462E-03  5.08121E-05 -2.50072E-06  5.25095E-06  1.50000E+01
  2.03426E+01  2.03892E+01  2.01406E+01 -4.24080E-01  1.22517E-01 -4.67580E-03 -2.30444E-01  2.70594E-05 -3.07458E-04  7.70707E-05  8.68916E-04  4.30431E-01 -7.31751E-03  4.88238E-05 -2.41825E-06  4.05243E-06  1.50000E+01
  2.03640E+01  2.03911E+01  2.01540E+01 -4.21241E-01  1.28095E-01 -1.05295E-02 -2.30852E-01  2.61800E-05 -3.03395E-04  8.36091E-05  7.70652E-04  4.41610E-01 -6.52050E-03  4.83626E-05 -2.09688E-06  5.20370E-06  1.50000E+01
  2.08720E+01  2.03944E+01  1.97321E+01 -2.52455E-01  5.68019E-01  1.64417E-01 -3.07709E-01  4.44417E-05 -1.83171E-04 -1.09720E-04  1.67165E-03  1.79585E+00  2.14245E-03  3.77176E-05  9.50549E-06 -1.65983E-05  1.50000E+01
  2.07908E+01  2.04168E+01  1.96841E+01 -2.78238E-01  4.29571E-01  1.60567E-01 -5.89686E-01  3.14776E-05 -3.32307E-04 -1.96185E-04  2.33468E-03  1.35823E+00  3.15895E-03  3.53374E-05  1.01869E-05 -2.04574E-05  1.50000E+01
  2.07711E+01  2.04106E+01  1.96975E+01 -2.84258E-01  4.13102E-01  1.50492E-01 -5.82261E-01  2.22248E-05 -3.39023E-04 -1.89556E-04  2.03476E-03  1.30446E+00  2.68729E-03  3.54898E-05  8.94334E-06 -2.10635E-05  1.50000E+01
  2.04486E+01  2.03931E+01  2.01837E+01 -4.06812E-01  1.49698E-01 -3.24744E-02 -3.00655E-01  2.25129E-05 -2.78388E-04  9.30999E-05 -9.33400E-04  4.65738E-01 -9.24684E-04  4.35876E-05 -1.68766E-07  1.02248E-05  1.50000E+01
  2.04695E+01  2.03885E+01  2.01728E+01 -4.01747E-01  1.62544E-01 -3.45070E-02 -3.31806E-01  2.20832E-05 -2.64983E-04  8.57706E-05 -1.14643E-03  4.92769E-01  1.62782E-04  4.21298E-05  5.44064E-08  1.12490E-05  1.50000E+01
  2.04275E+01  2.03980E+01  2.01945E+01 -4.11518E-01  1.37859E-01 -2.94024E-02 -3.27499E-01  2.22206E-05 -3.04215E-04  1.05861E-04 -4.12508E-04  4.43179E-01 -3.41912E-03  4.54698E-05 -1.65347E-08  1.07324E-05  1.50000E+01
  2.04475E+01  2.03658E+01  1.99685E+01 -4.03691E-01  1.84615E-01  6.26868E-03 -3.22218E-01  2.04466E-05 -2.84664E-04 -1.73027E-05 -6.71067E-04  5.79594E-01  1.36581E-04  3.87219E-05 -2.29390E-06 -2.29019E-06  1.50000E+01
  2.08307E+01  2.04181E+01  1.96827E+01 -2.67100E-01  4.82679E-01  1.71963E-01 -5.13086E-01  4.51760E-05 -2.89606E-04 -1.81437E-04  2.35977E-03  1.52787E+00  3.44008E-03  3.55627E-05  1.14110E-05 -1.88638E-05  1.50000E+01
  2.08299E+01  2.04318E+01  1.96581E+01 -2.70230E-01  4.59814E-01  1.78574E-01 -5.61043E-01  5.12203E-05 -3.04328E-04 -2.02292E-04  2.61809E-03  1.45690E+00  4.06857E-03  3.55896E-05  1.30207E-05 -1.93410E-05  1.50000E+01
  2.08104E+01  2.04239E+01  1.96709E+01 -2.73529E-01  4.45277E-01  1.70023E-01 -5.75223E-01  4.12435E-05 -3.21149E-04 -2.00565E-04  2.54599E-03  1.40967E+00  3.65824E-03  3.51719E-05  1.14587E-05 -1.97031E-05  1.50000E+01
  2.07514E+01  2.04051E+01  1.97112E+01 -2.91429E-01  3.96239E-01  1.40045E-01 -5.39252E-01  1.50744E-05 -3.34237E-04 -1.78321E-04  1.61928E-03  1.24997E+00  2.24990E-03  3.60020E-05  7.87924E-06 -2.17666E-05  1.50000E+01
  2.05313E+01  2.03702E+01  2.01155E+01 -3.83255E-01  2.29937E-01 -3.25646E-02 -2.41017E-01  1.75790E-05 -2.11465E-04  4.89048E-05 -1.15805E-03  6.76537E-01 -4.20043E-04  3.58953E-05 -1.36292E-06  8.48620E-06  1.50000E+01
  2.05110E+01  2.03741E+01  2.01269E+01 -3.89707E-01  2.07823E-01 -3.23563E-02 -2.80343E-01  1.92970E-05 -2.12961E-04  5.31177E-05 -1.27786E-03  6.04086E-01 -3.18074E-04  3.67958E-05 -1.16398E-06  8.24237E-06  1.50000E+01
  2.03639E+01  2.03797E+01  2.01027E+01 -4.20029E-01  1.50399E-01 -9.49114E-03 -2.90790E-01  3.00958E-05 -3.16059E-04  6.17810E-05 -3.31693E-04  5.19144E-01 -2.53331E-03  5.26999E-05 -2.85908E-06  4.76862E-06  1.50000E+01
  2.03422E+01  2.03789E+01  2.00891E+01 -4.22851E-01  1.49747E-01 -5.81041E-03 -2.84641E-01  2.78713E-05 -3.13191E-04  5.29509E-05 -6.01947E-05  5.14170E-01 -3.08178E-03  5.09758E-05 -3.18493E-06  3.22484E-06  1.50000E+01
  2.01097E+01  2.02912E+01  2.02248E+01 -5.43066E-02 -9.10341E-01  0.00000E+00 -1.00326E+00  1.73472E-04 -1.07570E-04 -1.02903E-04 -1.70282E+00  1.58059E+01 -2.00579E+01  2.58097E-05  2.58050E-05  2.54339E-06  1.50000E+01
  2.09102E+01  2.04241E+01  1.96820E+01 -2.50454E-01  5.75574E-01  1.95359E-01 -1.83042E-01  3.18568E-05 -1.02274E-04 -7.47264E-05  8.71241E-03  9.54802E-01  1.63700E-02  2.15044E-05  7.15253E-06 -8.51065E-06  1.50000E+01
  2.08899E+01  2.04295E+01  1.96697E+01 -2.56436E-01  5.43436E-01  1.91999E-01 -5.23651E-01  6.42339E-05 -2.31141E-04 -1.66703E-04  2.16995E-03  1.72220E+00  3.60823E-03  4.09064E-05  1.47171E-05 -1.76788E-05  1.50000E+01
  2.07705E+01  2.04231E+01  1.96726E+01 -2.85419E-01  3.90137E-01  1.58341E-01 -6.22120E-01  2.55759E-05 -3.53481E-04 -2.09604E-04  2.30748E-03  1.23352E+00  3.17475E-03  3.53095E-05  1.01789E-05 -2.12870E-05  1.50000E+01
  2.07508E+01  2.04170E+01  1.96861E+01 -2.91911E-01  3.74102E-01  1.48517E-01 -6.05335E-01  1.68988E-05 -3.51503E-04 -1.99042E-04  1.88903E-03  1.18130E+00  2.68773E-03  3.57421E-05  9.03130E-06 -2.20051E-05  1.50000E+01
  2.03841E+01  2.03691E+01  1.99836E+01 -4.16064E-01  1.64936E-01  2.69877E-03 -3.06471E-01  2.24345E-05 -2.94960E-04 -8.74820E-06 -7.58394E-04  5.33471E-01  1.91414E-04  4.11826E-05 -2.56643E-06 -8.37876E-07  1.50000E+01
  2.05108E+01  2.03796E+01  2.01511E+01 -3.90230E-01  1.98274E-01 -3.77387E-02 -3.37380E-01  2.00025E-05 -2.40219E-04  7.09473E-05 -1.17473E-03  5.87002E-01 -8.35765E-06  3.97698E-05 -3.08831E-07  1.14031E-05  1.50000E+01
  2.03854E+01  2.03931E+01  2.01676E+01 -4.18242E-01  1.32306E-01 -1.66418E-02 -2.80489E-01  2.49266E-05 -3.08207E-04  9.25403E-05  5.11389E-04  4.45992E-01 -5.60575E-03  4.80770E-05 -1.60450E-06  6.80332E-06  1.50000E+01
  2.04065E+01  2.03955E+01  2.01811E+01 -4.15035E-01  1.35474E-01 -2.29424E-02 -3.05820E-01  2.36701E-05 -3.04709E-04  9.93171E-05  9.95300E-05  4.45429E-01 -4.56259E-03  4.73557E-05 -7.71220E-07  9.13695E-06  1.50000E+01
  2.01264E+01  2.03384E+01  2.01800E+01 -1.41007E-01 -8.31143E-01  1.21361E-02 -5.06817E-01  2.81529E-04 -2.45690E-04 -1.33016E-04  2.20703E-02 -2.65505E+00 -8.92234E-03  4.32332E-05  3.59320E-05  1.95945E-06  1.50000E+01
  2.01080E+01  2.03285E+01  2.01671E+01 -1.18684E-01 -8.62912E-01  6.27885E-03 -3.80094E-01  2.93402E-04 -2.41910E-04 -1.34891E-04  1.96764E-02 -2.72957E+00 -7.99647E-03  4.38224E-05  3.83313E-05  1.74547E-06  1.50000E+01
  2.08289E+01  2.04462E+01  1.96337E+01 -2.74435E-01  4.34044E-01  1.82864E-01 -6.49424E-01  5.81705E-05 -3.20110E-04 -2.23581E-04  2.83595E-03  1.37686E+00  4.70641E-03  3.59405E-05  1.44292E-05 -1.93239E-05  1.50000E+01
  2.03202E+01  2.03738E+01  2.00239E+01 -4.25017E-01  1.61722E-01 -8.11461E-04 -2.97723E-01  2.15174E-05 -3.05231E-04  1.40065E-05 -2.75743E-04  5.42081E-01 -9.20363E-04  4.49652E-05 -3.40977E-06  4.05720E-07  1.50000E+01
  2.03204E+01  2.03756E+01  2.00499E+01 -4.25187E-01  1.56992E-01 -2.03194E-03 -2.89438E-01  2.36553E-05 -3.06254E-04  2.91061E-05 -9.13623E-05  5.32417E-01 -2.07071E-03  4.72397E-05 -3.46361E-06  1.18958E-06  1.50000E+01
  2.05313E+01  2.03660E+01  2.00910E+01 -3.82688E-01  2.37447E-01 -2.60794E-02 -3.08680E-01  1.64425E-05 -2.23164E-04  4.11306E-05 -1.04251E-03  6.96219E-01 -4.08293E-04  3.54081E-05 -1.81104E-06  7.32779E-06  1.50000E+01
  2.05312E+01  2.03627E+01  2.00664E+01 -3.82097E-01  2.43163E-01 -1.93268E-02 -2.90454E-01  1.68767E-05 -2.28655E-04  3.16679E-05 -8.26803E-04  7.16532E-01 -3.52116E-04  3.60618E-05 -2.27670E-06  6.20472E-06  1.50000E+01
  2.03427E+01  2.03956E+01  2.01657E+01 -4.25475E-01  9.88693E-02 -7.70267E-04 -2.50027E-01  2.84068E-05 -3.15654E-04  8.92465E-05  4.57365E-04  3.59372E-01 -9.84853E-03  4.84831E-05 -1.56985E-06  5.06869E-06  1.50000E+01
  2.03215E+01  2.03999E+01  2.01777E+01 -4.29886E-01  4.59754E-02  1.56494E-02 -2.58661E-01  3.85080E-05 -3.34838E-04  9.29369E-05 -3.63375E-03  2.02014E-01 -1.05670E-02  5.03379E-05  7.73057E-08  6.28315E-06  1.50000E+01
  2.03428E+01  2.04025E+01  2.01906E+01 -4.27378E-01  6.52480E-02  6.54155E-03 -2.67707E-01  3.24249E-05 -3.32948E-04  1.01386E-04 -1.78819E-03  2.58842E-01 -1.14711E-02  4.80955E-05 -1.41099E-07  6.84573E-06  1.50000E+01
  2.07311E+01  2.04116E+01  1.96999E+01 -2.99516E-01  3.57978E-01  1.38323E-01 -5.58298E-01  1.02339E-05 -3.43289E-04 -1.86074E-04  1.38319E-03  1.12937E+00  2.27517E-03  3.59158E-05  7.92875E-06 -2.23918E-05  1.50000E+01
  2.03631E+01  2.03707E+01  2.00234E+01 -4.19543E-01  1.62711E-01 -1.98475E-03 -2.83205E-01  2.29898E-05 -2.97843E-04  1.36456E-05 -9.42352E-04  5.41022E-01 -2.41417E-04  4.31091E-05 -2.83104E-06  7.58403E-07  1.50000E+01
  2.03629E+01  2.03702E+01  1.99971E+01 -4.19419E-01  1.63562E-01  8.88576E-04 -2.69761E-01  2.25242E-05 -2.97445E-04 -1.31938E-06 -8.22551E-04  5.35268E-01  6.73592E-05  4.24883E-05 -2.81539E-06 -1.47332E-07  1.50000E+01
  2.05311E+01  2.03605E+01  2.00416E+01 -3.81589E-01  2.47028E-01 -1.23511E-02 -2.76724E-01  1.75442E-05 -2.28596E-04  2.05978E-05 -6.18266E-04  7.35659E-01 -2.83642E-04  3.70046E-05 -2.69533E-06  4.77415E-06  1.50000E+01
  2.08095E+01  2.04376E+01  1.96463E+01 -2.76568E-01  4.20534E-01  1.75834E-01 -6.25923E-01  4.70443E-05 -3.35429E-04 -2.20862E-04  2.81392E-03  1.33269E+00  4.27407E-03  3.48788E-05  1.27050E-05 -1.97121E-05  1.50000E+01
  2.07901E+01  2.04299E+01  1.96593E+01 -2.80251E-01  4.05758E-01  1.67551E-01 -6.36883E-01  3.61837E-05 -3.47006E-04 -2.16621E-04  2.64347E-03  1.28461E+00  3.74183E-03  3.52605E-05  1.14923E-05 -2.06913E-05  1.50000E+01
  2.03425E+01  2.03836E+01  2.01150E+01 -4.23261E-01  1.38793E-01 -6.08819E-03 -2.57106E-01  2.84411E-05 -3.12805E-04  6.69802E-05  4.93684E-04  4.80610E-01 -4.95367E-03  5.12625E-05 -2.87737E-06  4.14521E-06  1.50000E+01
  2.03209E+01  2.03826E+01  2.01017E+01 -4.25915E-01  1.34989E-01 -1.82800E-03 -2.42975E-01  2.91940E-05 -3.09989E-04  5.84936E-05  7.03628E-04  4.71582E-01 -5.62017E-03  5.18564E-05 -3.16921E-06  3.22721E-06  1.50000E+01
  2.05716E+01  2.03556E+01  1.99902E+01 -3.67777E-01  2.89825E-01  2.75298E-03 -2.26191E-01  1.27817E-05 -2.22855E-04 -4.66719E-06 -4.75732E-04  8.82136E-01 -4.46197E-06  3.41915E-05 -3.12298E-06 -9.66859E-07  1.50000E+01
  2.05511E+01  2.03578E+01  1.99780E+01 -3.74697E-01  2.68191E-01  6.37802E-03 -2.42527E-01  1.53062E-05 -2.27313E-04 -1.08679E-05 -4.72977E-04  8.17963E-01  7.31685E-06  3.60360E-05 -3.03198E-06 -2.50706E-06  1.50000E+01
  2.05513E+01  2.03573E+01  2.00034E+01 -3.74700E-01  2.69163E-01 -1.54854E-03 -2.43057E-01  1.48590E-05 -2.25341E-04  1.56641E-06 -4.96519E-04  8.14939E-01 -1.06250E-04  3.54082E-05 -3.07469E-06  3.83223E-07  1.50000E+01
  2.08085E+01  2.04520E+01  1.96220E+01 -2.80687E-01  3.92801E-01  1.79390E-01 -6.57438E-01  5.43504E-05 -3.43241E-04 -2.37291E-04  3.03198E-03  1.24636E+00  4.89758E-03  3.51697E-05  1.39305E-05 -1.95589E-05  1.50000E+01
  2.05312E+01  2.03814E+01  2.01642E+01 -3.84227E-01  2.09820E-01 -4.46950E-02 -3.35688E-01  1.95324E-05 -2.40147E-04  7.80506E-05 -1.22574E-03  6.28196E-01 -1.53894E-04  4.05073E-05  2.88670E-07  1.38172E-05  1.50000E+01
  2.05313E+01  2.03753E+01  2.01399E+01 -3.83764E-01  2.20693E-01 -3.87625E-02 -3.00705E-01  1.83518E-05 -2.25374E-04  6.21231E-05 -1.19485E-03  6.54840E-01 -3.64539E-04  3.82349E-05 -8.07362E-07  1.03381E-05  1.50000E+01
  2.03206E+01  2.03785E+01  2.00759E+01 -4.25442E-01  1.48456E-01 -2.55372E-03 -2.67721E-01  2.75442E-05 -3.07579E-04  4.42195E-05  2.77590E-04  5.10291E-01 -3.60969E-03  5.10312E-05 -3.49368E-06  2.34709E-06  1.50000E+01
  2.03640E+01  2.04053E+01  2.02036E+01 -4.24503E-01  8.09201E-02 -2.97023E-03 -2.72342E-01  2.90125E-05 -3.29894E-04  1.09263E-04 -6.72857E-04  3.03270E-01 -1.17470E-02  4.75784E-05 -2.74693E-08  8.15801E-06  1.50000E+01
  2.03851E+01  2.04082E+01  2.02167E+01 -4.21274E-01  9.32705E-02 -1.26697E-02 -2.63880E-01  2.37953E-05 -3.26996E-04  1.14613E-04 -1.49707E-04  3.35951E-01 -1.14291E-02  4.44432E-05 -1.15924E-07  7.85957E-06  1.50000E+01
  2.03853E+01  2.04004E+01  2.01923E+01 -4.19526E-01  1.16355E-01 -1.59122E-02 -2.93244E-01  2.45770E-05 -3.21909E-04  1.07874E-04  6.31791E-04  4.00260E-01 -8.45437E-03  4.82605E-05 -5.75930E-07  9.12220E-06  1.50000E+01
  2.00900E+01  2.03183E+01  2.01542E+01 -9.78911E-02 -8.92485E-01  2.09035E-03 -2.87177E-01  3.04835E-04 -2.38348E-04 -1.32765E-04  1.62619E-02 -2.78832E+00 -6.44887E-03  4.47365E-05  4.14860E-05  5.47444E-07  1.50000E+01
  2.00776E+01  2.03002E+01  2.01655E+01 -6.61538E-02 -9.24405E-01 -1.16843E-03 -4.70498E-01  3.96735E-04 -3.01153E-04 -2.04284E-04  1.12241E-02 -2.85558E+00 -4.55054E-03  4.61854E-05  4.65929E-05 -2.90222E-07  1.50000E+01