 TITLE="3D TRIANGULAR SURFACE DATA"
VARIABLES="X","Y","Z","U","V","W","P", "Fex", "Fey", "Fez","Finx","Finy","Finz","WSSx","WSSy","WSSz","AMForce"
 ZONE T="unstruc"N=        1757 E=        3355 F=FEPOINT  ET=TRIANGLE
  2.03076E+01  2.02757E+01  2.00978E+01  1.57297E-01 -1.21950E+00 -2.92222E-03  1.10570E+00 -6.55667E-04  6.29972E-04  1.50722E-04  1.39376E-02 -5.05460E+00 -9.01402E-04  3.52234E-05  4.28451E-05 -4.63300E-06  1.50000E+01
  2.03224E+01  2.02928E+01  2.00981E+01  1.45237E-01 -1.20216E+00 -2.62293E-03  1.14753E+00 -3.15556E-04  3.10959E-04  7.10209E-05  4.87541E-03 -2.33830E+00 -3.00952E-03  1.70161E-05  2.01722E-05 -2.36841E-06  1.50000E+01
  2.03175E+01  2.02920E+01  2.00768E+01  1.46471E-01 -1.20151E+00 -2.52669E-03  1.18996E+00 -4.91683E-04  4.83546E-04  8.55052E-05  1.40263E-02 -3.45366E+00 -4.56842E-03  2.52208E-05  2.95343E-05 -3.36693E-06  1.50000E+01
  2.03088E+01  2.02674E+01  2.01290E+01  1.61270E-01 -1.22783E+00 -3.97779E-03  1.14957E+00 -5.20145E-04  4.94550E-04  1.57663E-04  9.76769E-03 -4.28895E+00 -1.85330E-03  2.96175E-05  3.70331E-05 -3.73492E-06  1.50000E+01
  2.03218E+01  2.02861E+01  2.01192E+01  1.51392E-01 -1.21090E+00 -2.68437E-03  1.14178E+00 -4.38004E-04  4.26308E-04  1.21859E-04  1.16720E-02 -3.45840E+00 -2.93528E-04  2.47526E-05  3.01127E-05 -3.29478E-06  1.50000E+01
  2.03339E+01  2.03027E+01  2.01102E+01  1.35367E-01 -1.18913E+00 -1.23811E-03  1.16730E+00 -3.86818E-04  3.91739E-04  9.70453E-05  1.28311E-02 -2.92788E+00 -3.53552E-03  2.20663E-05  2.57621E-05 -3.36218E-06  1.50000E+01
  2.03316E+01  2.03060E+01  2.00862E+01  1.31124E-01 -1.18244E+00 -8.05722E-04  1.21974E+00 -4.16753E-04  4.25418E-04  7.98797E-05  1.30037E-02 -2.92857E+00 -1.23490E-03  2.24693E-05  2.55542E-05 -3.28496E-06  1.50000E+01
  2.03142E+01  2.02927E+01  2.00497E+01  1.45603E-01 -1.19970E+00 -1.53640E-03  1.23059E+00 -5.30773E-04  5.27139E-04  6.07497E-05  1.31741E-02 -3.75718E+00 -1.26059E-03  2.73570E-05  3.13376E-05 -2.88373E-06  1.50000E+01
  2.03021E+01  2.02764E+01  2.00663E+01  1.56573E-01 -1.21723E+00 -1.88409E-03  1.18412E+00 -5.98316E-04  5.76822E-04  9.47636E-05  9.95153E-03 -4.29390E+00  6.49563E-04  3.00853E-05  3.57304E-05 -3.62594E-06  1.50000E+01
  2.02994E+01  2.02773E+01  2.00374E+01  1.55884E-01 -1.21559E+00 -1.10158E-03  1.21843E+00 -5.64408E-04  5.46803E-04  5.04869E-05  9.68157E-03 -4.03126E+00  6.46022E-05  2.80708E-05  3.26880E-05 -2.16136E-06  1.50000E+01
  2.03239E+01  2.02794E+01  2.01454E+01  1.56178E-01 -1.21944E+00 -3.59708E-03  1.15443E+00 -4.63468E-04  4.44446E-04  1.56262E-04  1.16636E-02 -3.74658E+00 -1.54253E-03  2.65296E-05  3.30094E-05 -3.25730E-06  1.50000E+01
  2.03359E+01  2.02975E+01  2.01347E+01  1.41800E-01 -1.19819E+00 -1.57781E-03  1.21532E+00 -4.30821E-04  4.28847E-04  1.32332E-04  1.48483E-02 -3.39859E+00 -2.76243E-03  2.54456E-05  3.05349E-05 -3.60437E-06  1.50000E+01
  2.02769E+01  2.02390E+01  2.00970E+01  1.65024E-01 -1.24147E+00 -2.72224E-03  1.05345E+00 -5.29020E-04  4.96326E-04  1.28357E-04  5.43329E-03 -4.40608E+00 -3.94543E-04  2.93296E-05  3.67202E-05 -3.50298E-06  1.50000E+01
  2.02739E+01  2.02425E+01  2.00680E+01  1.64548E-01 -1.23845E+00 -1.81185E-03  1.06852E+00 -5.43026E-04  5.11685E-04  9.24539E-05  5.35344E-03 -4.33079E+00 -2.67776E-04  2.88794E-05  3.53426E-05 -2.94917E-06  1.50000E+01
  2.02613E+01  2.02241E+01  2.00822E+01  1.64171E-01 -1.24591E+00 -1.92411E-03  1.03778E+00 -4.99057E-04  4.67756E-04  1.05689E-04  4.11237E-03 -4.26005E+00 -1.60520E-04  2.82590E-05  3.51940E-05 -2.75084E-06  1.50000E+01
  2.02930E+01  2.02539E+01  2.01123E+01  1.64111E-01 -1.23529E+00 -3.52125E-03  1.10344E+00 -5.63104E-04  5.31155E-04  1.52972E-04  7.74684E-03 -4.65438E+00 -1.01541E-03  3.14269E-05  3.93619E-05 -3.99670E-06  1.50000E+01
  2.02804E+01  2.02339E+01  2.01255E+01  1.65545E-01 -1.24569E+00 -3.63018E-03  1.05157E+00 -5.01418E-04  4.66137E-04  1.56527E-04  5.33083E-03 -4.30571E+00 -5.47537E-04  2.89053E-05  3.71596E-05 -3.65301E-06  1.50000E+01
  2.02963E+01  2.02475E+01  2.01410E+01  1.65592E-01 -1.24108E+00 -4.52426E-03  1.06259E+00 -4.92299E-04  4.59101E-04  1.67853E-04  6.94071E-03 -4.23000E+00 -1.39905E-03  2.88861E-05  3.72083E-05 -3.59232E-06  1.50000E+01
  2.02897E+01  2.02583E+01  2.00825E+01  1.62789E-01 -1.23102E+00 -2.48860E-03  1.07851E+00 -5.98653E-04  5.68060E-04  1.20187E-04  7.73397E-03 -4.65821E+00 -7.16528E-04  3.15296E-05  3.85230E-05 -3.77759E-06  1.50000E+01
  2.02866E+01  2.02604E+01  2.00530E+01  1.62079E-01 -1.22853E+00 -1.47368E-03  1.12289E+00 -5.84341E-04  5.54490E-04  7.57243E-05  7.37833E-03 -4.26203E+00 -9.44164E-05  2.87592E-05  3.44177E-05 -2.71315E-06  1.50000E+01
  2.03455E+01  2.03185E+01  2.00983E+01  1.11500E-01 -1.15905E+00  1.94639E-03  1.22626E+00 -4.48135E-04  4.77762E-04  9.72416E-05  1.95876E-02 -3.15366E+00 -3.16856E-03  2.56103E-05  2.82519E-05 -4.26038E-06  1.50000E+01
  2.03432E+01  2.03212E+01  2.00727E+01  1.06129E-01 -1.15128E+00  1.66713E-03  1.29102E+00 -4.74203E-04  5.12035E-04  7.54772E-05  2.02070E-02 -3.24723E+00 -1.94747E-03  2.71006E-05  2.90579E-05 -3.84562E-06  1.50000E+01
  2.03479E+01  2.03145E+01  2.01235E+01  1.18742E-01 -1.16910E+00  1.75218E-03  1.19620E+00 -4.26296E-04  4.48326E-04  1.17205E-04  1.87423E-02 -3.26708E+00 -4.37993E-03  2.59755E-05  2.96401E-05 -4.53029E-06  1.50000E+01
  2.03287E+01  2.03074E+01  2.00611E+01  1.29494E-01 -1.17861E+00 -9.06795E-04  1.21556E+00 -4.89497E-04  5.03012E-04  6.63578E-05  1.77109E-02 -3.39683E+00 -2.36263E-03  2.62801E-05  2.93256E-05 -3.28800E-06  1.50000E+01
  2.03413E+01  2.03228E+01  2.00464E+01  1.02660E-01 -1.14598E+00  8.06193E-04  1.10298E+00 -5.09918E-04  5.55265E-04  5.07582E-05  2.17910E-02 -3.40820E+00 -1.79782E-03  2.90400E-05  3.04575E-05 -2.96981E-06  1.50000E+01
  2.02849E+01  2.02615E+01  2.00241E+01  1.61656E-01 -1.22725E+00 -6.11860E-04  1.19206E+00 -5.67595E-04  5.39611E-04  3.41443E-05  7.02696E-03 -4.09495E+00  1.48468E-04  2.73609E-05  3.22666E-05 -1.49611E-06  1.50000E+01
  2.03124E+01  2.02933E+01  2.00218E+01  1.44792E-01 -1.19843E+00 -8.49563E-04  1.18656E+00 -5.31519E-04  5.31512E-04  2.64977E-05  1.28640E-02 -3.81415E+00 -3.00147E-04  2.76729E-05  3.11939E-05 -1.42353E-06  1.50000E+01
  2.02982E+01  2.02777E+01  2.00089E+01  1.55518E-01 -1.21493E+00 -3.68891E-04  1.21309E+00 -5.43218E-04  5.28738E-04  1.20929E-05  9.32757E-03 -3.95156E+00  2.19087E-04  2.71913E-05  3.13500E-05 -4.97852E-07  1.50000E+01
  2.02846E+01  2.02276E+01  2.01531E+01  1.65818E-01 -1.25101E+00 -4.49150E-03  1.01923E+00 -4.59874E-04  4.23836E-04  1.75136E-04  5.19637E-03 -4.15233E+00 -8.00330E-04  2.81842E-05  3.70930E-05 -3.20763E-06  1.50000E+01
  2.03006E+01  2.02406E+01  2.01682E+01  1.66550E-01 -1.24782E+00 -5.37119E-03  1.04770E+00 -4.52804E-04  4.16410E-04  1.84359E-04  6.33027E-03 -4.05635E+00 -1.30181E-03  2.74485E-05  3.61867E-05 -2.96398E-06  1.50000E+01
  2.06436E+01  2.04496E+01  1.96967E+01 -4.10708E-01 -2.78704E-01 -2.15982E-01  9.03669E-01 -1.01004E-04  6.03567E-04  6.01895E-05 -2.01997E-02 -8.31731E-01 -8.27328E-03  3.60559E-05  8.36162E-06  2.84211E-06  1.50000E+01
  2.06230E+01  2.04438E+01  1.97088E+01 -4.05074E-01 -2.93628E-01 -2.10655E-01  8.64806E-01 -1.08506E-04  6.09891E-04  4.62970E-05 -2.29209E-02 -8.76279E-01 -1.07491E-02  3.44454E-05  8.35239E-06  1.53993E-06  1.50000E+01
  2.06424E+01  2.04466E+01  1.97232E+01 -4.34670E-01 -1.76526E-01 -1.92344E-01  7.95935E-01 -7.45321E-05  5.85506E-04  7.28253E-05 -1.57232E-02 -5.08938E-01 -2.82399E-03  3.55603E-05  6.73790E-06  1.33789E-06  1.50000E+01
  2.06217E+01  2.04412E+01  1.97354E+01 -4.30472E-01 -1.87533E-01 -1.87982E-01  7.13160E-01 -6.72922E-05  5.38234E-04  5.51901E-05 -1.83078E-02 -5.39287E-01 -4.79207E-03  3.44743E-05  6.74362E-06  5.10760E-07  1.50000E+01
  2.06413E+01  2.04430E+01  1.97496E+01 -4.52839E-01 -8.82120E-02 -1.67921E-01  6.41464E-01 -3.46660E-05  4.64001E-04  6.58852E-05 -1.16254E-02 -2.33444E-01  9.07688E-04  3.53340E-05  5.39356E-06  8.25927E-07  1.50000E+01
  2.07056E+01  2.04685E+01  1.96610E+01 -4.20971E-01 -2.63324E-01 -2.31729E-01  5.27503E-01 -3.78897E-05  3.17879E-04  4.70791E-05 -1.52673E-02 -7.92987E-01 -3.93579E-03  3.60454E-05  8.47277E-06  2.09909E-06  1.50000E+01
  2.06849E+01  2.04620E+01  1.96727E+01 -4.18254E-01 -2.64689E-01 -2.26322E-01  5.79023E-01 -5.70588E-05  3.99617E-04  5.22176E-05 -1.63252E-02 -7.94149E-01 -4.85581E-03  3.45987E-05  8.15692E-06  7.96254E-07  1.50000E+01
  2.07044E+01  2.04641E+01  1.96871E+01 -4.42600E-01 -1.69917E-01 -2.06526E-01  4.79889E-01 -2.58094E-05  3.12713E-04  5.43008E-05 -1.12312E-02 -5.01224E-01  2.06666E-04  3.60857E-05  7.44356E-06  2.06584E-07  1.50000E+01
  2.03509E+01  2.03095E+01  2.01490E+01  1.26999E-01 -1.18070E+00  1.31659E-03  1.32390E+00 -4.31853E-04  4.44772E-04  1.43082E-04  1.80948E-02 -3.45671E+00 -4.32215E-03  2.70979E-05  3.18335E-05 -4.18684E-06  1.50000E+01
  2.07035E+01  2.04591E+01  1.97131E+01 -4.59034E-01 -9.01733E-02 -1.81322E-01  3.73203E-01 -7.66309E-06  2.72043E-04  5.19860E-05 -7.94593E-03 -2.53993E-01  2.64896E-03  3.77051E-05  6.68729E-06 -3.06226E-07  1.50000E+01
  2.07242E+01  2.04652E+01  1.97013E+01 -4.60912E-01 -9.40146E-02 -1.86621E-01  3.63169E-01 -2.24940E-06  2.25890E-04  4.50566E-05 -7.44960E-03 -2.69179E-01  2.73706E-03  3.81456E-05  7.26604E-06 -7.77670E-07  1.50000E+01
  2.03549E+01  2.03377E+01  2.00321E+01  6.31626E-02 -1.09951E+00  2.17693E-03  1.12987E+00 -5.65750E-04  6.60385E-04  3.74537E-05  2.43461E-02 -3.31649E+00 -1.25026E-03  3.16111E-05  3.06374E-05 -2.27384E-06  1.50000E+01
  2.03402E+01  2.03236E+01  2.00194E+01  1.00508E-01 -1.14308E+00 -1.77001E-04  1.07333E+00 -5.46913E-04  5.96363E-04  2.19449E-05  2.12867E-02 -3.49064E+00 -8.29043E-04  2.97226E-05  3.07239E-05 -1.55324E-06  1.50000E+01
  2.03120E+01  2.02603E+01  2.01566E+01  1.63840E-01 -1.23550E+00 -4.92279E-03  1.09556E+00 -4.67836E-04  4.38080E-04  1.73128E-04  8.41016E-03 -3.99629E+00 -1.77015E-03  2.75182E-05  3.53771E-05 -3.26147E-06  1.50000E+01
  2.03165E+01  2.02532E+01  2.01830E+01  1.65684E-01 -1.24366E+00 -5.82378E-03  1.07826E+00 -4.39971E-04  4.05661E-04  1.90335E-04  7.58989E-03 -3.93756E+00 -1.68424E-03  2.67797E-05  3.52715E-05 -2.76428E-06  1.50000E+01
  2.03277E+01  2.02727E+01  2.01717E+01  1.59852E-01 -1.22841E+00 -4.64653E-03  1.10647E+00 -4.51242E-04  4.25660E-04  1.79525E-04  1.02424E-02 -3.80540E+00 -2.15060E-03  2.67220E-05  3.40955E-05 -2.92478E-06  1.50000E+01
  2.02842E+01  2.02615E+01  1.99956E+01  1.61599E-01 -1.22708E+00  1.53415E-04  1.21278E+00 -5.52372E-04  5.25778E-04 -5.38870E-06  6.86389E-03 -4.00590E+00  3.03958E-04  2.65262E-05  3.11408E-05  2.26234E-07  1.50000E+01
  2.03118E+01  2.02932E+01  1.99938E+01  1.44678E-01 -1.19843E+00 -3.40336E-04  1.08511E+00 -5.33969E-04  5.34320E-04 -7.36462E-06  1.24513E-02 -3.80772E+00  2.57700E-04  2.74748E-05  3.08407E-05  2.44464E-07  1.50000E+01
  2.02980E+01  2.02771E+01  1.99808E+01  1.55753E-01 -1.21549E+00  3.05817E-04  1.21523E+00 -5.46121E-04  5.30534E-04 -2.48293E-05  9.12642E-03 -3.90132E+00  4.46965E-04  2.69717E-05  3.11555E-05  1.14311E-06  1.50000E+01
  2.06604E+01  2.04391E+01  1.97897E+01 -4.79067E-01  4.63570E-02 -1.25559E-01  4.57493E-01  3.27016E-06  3.32829E-04  5.65284E-05 -5.05812E-03  1.74715E-01  4.18345E-03  3.68129E-05  3.77132E-06  4.37868E-07  1.50000E+01
  2.06811E+01  2.04435E+01  1.97773E+01 -4.80529E-01  4.07814E-02 -1.29909E-01  3.64608E-01  6.49811E-06  2.77340E-04  5.13016E-05 -4.38903E-03  1.52993E-01  4.24320E-03  3.69976E-05  4.27852E-06 -3.06888E-07  1.50000E+01
  2.06612E+01  2.04436E+01  1.97635E+01 -4.68627E-01 -1.40188E-02 -1.48044E-01  4.84958E-01 -9.24269E-06  3.60951E-04  6.10630E-05 -7.11417E-03 -9.99822E-03  3.53348E-03  3.59401E-05  4.58307E-06  4.64840E-07  1.50000E+01
  2.03603E+01  2.03309E+01  2.01112E+01  8.38721E-02 -1.12741E+00  7.11129E-03  1.24152E+00 -4.59216E-04  5.18591E-04  1.10524E-04  2.35032E-02 -3.25721E+00 -4.33210E-03  2.86650E-05  3.04169E-05 -5.69280E-06  1.50000E+01
  2.01078E+01  1.99739E+01  2.01911E+01  5.40264E-02 -1.24555E+00 -4.25728E-04  3.20448E-01 -6.61718E-05  1.45194E-04  6.51025E-05  1.41708E-03 -3.91003E+00 -1.78821E-04  4.36828E-05  5.84915E-05 -2.22914E-06  1.50000E+01
  2.00977E+01  1.99519E+01  2.02018E+01  4.06096E-02 -1.24242E+00 -2.63742E-04  2.96481E-01 -2.24555E-06  1.17551E-04  3.43279E-05  1.09082E-03 -3.90104E+00 -1.15937E-04  5.66557E-05  7.40740E-05 -1.03964E-06  1.50000E+01
  2.01152E+01  1.99634E+01  2.02147E+01  4.64937E-02 -1.25073E+00 -1.88956E-04 -1.62640E-01  1.79650E-04 -1.02837E-05 -8.79687E-05  9.02387E-04 -3.93731E+00  7.38272E-05  6.06032E-05  7.97887E-05  3.44298E-07  1.50000E+01
  2.07227E+01  2.04537E+01  1.97529E+01 -4.83254E-01  2.73549E-02 -1.39777E-01  2.09179E-01  1.70900E-05  1.64823E-04  3.44933E-05 -3.46014E-03  1.05003E-01  4.09973E-03  3.91293E-05  5.63940E-06 -1.02019E-06  1.50000E+01
  2.07434E+01  2.04595E+01  1.97409E+01 -4.84865E-01  2.14398E-02 -1.45276E-01  1.24348E-01  1.02454E-05  7.05914E-05  1.51832E-05 -1.48153E-02  8.63227E-02  1.33853E-02  2.02209E-05  3.19174E-06 -6.98282E-07  1.50000E+01
  2.07234E+01  2.04595E+01  1.97271E+01 -4.73354E-01 -2.80610E-02 -1.62388E-01  2.99261E-01  1.08642E-05  1.86976E-04  3.88960E-05 -5.06092E-03 -6.56483E-02  3.79293E-03  3.97581E-05  6.59664E-06 -9.79591E-07  1.50000E+01
  2.06620E+01  2.04480E+01  1.97373E+01 -4.55251E-01 -8.60101E-02 -1.72009E-01  5.65720E-01 -2.96797E-05  4.22433E-04  6.78309E-05 -9.99927E-03 -2.31866E-01  1.81028E-03  3.58958E-05  5.61918E-06  8.29697E-07  1.50000E+01
  2.06819E+01  2.04485E+01  1.97512E+01 -4.70249E-01 -1.76355E-02 -1.52402E-01  4.08745E-01 -4.42864E-06  3.08932E-04  5.73037E-05 -6.20236E-03 -2.61067E-02  3.76337E-03  3.68281E-05  5.08990E-06  2.51527E-08  1.50000E+01
  2.02846E+01  2.02605E+01  1.99676E+01  1.61953E-01 -1.22803E+00  8.66377E-04  1.15401E+00 -5.62195E-04  5.32881E-04 -4.40721E-05  6.83210E-03 -3.95399E+00  3.95875E-04  2.64870E-05  3.13406E-05  1.68798E-06  1.50000E+01
  2.02718E+01  2.02446E+01  2.00391E+01  1.64264E-01 -1.23659E+00 -9.25286E-04  1.10785E+00 -5.54137E-04  5.21619E-04  5.43595E-05  5.32963E-03 -4.19113E+00  2.63231E-05  2.77136E-05  3.33145E-05 -1.95061E-06  1.50000E+01
  2.02707E+01  2.02454E+01  2.00105E+01  1.64163E-01 -1.23581E+00 -1.37413E-04  1.15882E+00 -5.55779E-04  5.22323E-04  1.51803E-05  5.27089E-03 -4.09142E+00  1.86729E-04  2.67289E-05  3.18408E-05 -5.57449E-07  1.50000E+01
  2.06864E+01  2.04651E+01  1.96464E+01 -3.89208E-01 -3.74281E-01 -2.49170E-01  7.01957E-01 -8.34526E-05  4.36711E-04  3.98548E-05 -2.04274E-02 -1.14130E+00 -1.10773E-02  3.58063E-05  9.96193E-06  2.26096E-06  1.50000E+01
  2.06206E+01  2.04382E+01  1.97620E+01 -4.49652E-01 -9.53453E-02 -1.64061E-01  6.67021E-01 -3.62808E-05  4.79996E-04  5.91574E-05 -1.37791E-02 -2.50306E-01 -4.80215E-04  3.57701E-05  5.40359E-06  1.64607E-06  1.50000E+01
  2.06404E+01  2.04390E+01  1.97760E+01 -4.66661E-01 -1.32382E-02 -1.44070E-01  5.57156E-01 -1.27369E-05  4.11481E-04  6.24818E-05 -8.32956E-03 -2.15084E-03  3.02388E-03  3.64335E-05  4.36105E-06  1.11444E-06  1.50000E+01
  2.02589E+01  2.02270E+01  2.00537E+01  1.64179E-01 -1.24367E+00 -1.16167E-03  1.02535E+00 -5.09259E-04  4.78437E-04  7.06572E-05  4.07825E-03 -4.20822E+00 -5.73556E-05  2.76582E-05  3.37831E-05 -2.00841E-06  1.50000E+01
  2.02442E+01  2.02113E+01  2.00396E+01  1.62314E-01 -1.24734E+00 -6.42430E-04  1.00301E+00 -4.78709E-04  4.49875E-04  5.04830E-05  3.35649E-03 -4.13957E+00  8.82740E-06  2.68883E-05  3.28019E-05 -1.38472E-06  1.50000E+01
  2.02462E+01  2.02090E+01  2.00678E+01  1.62016E-01 -1.24897E+00 -1.24370E-03  1.01767E+00 -4.70097E-04  4.41451E-04  8.44997E-05  3.34515E-03 -4.17830E+00 -3.64243E-05  2.75497E-05  3.41465E-05 -2.19478E-06  1.50000E+01
  2.03581E+01  2.03342E+01  2.00852E+01  7.46747E-02 -1.11516E+00  6.25945E-03  1.38163E+00 -4.87124E-04  5.60253E-04  8.99469E-05  2.41969E-02 -3.22837E+00 -3.14380E-03  2.95630E-05  3.01554E-05 -4.93370E-06  1.50000E+01
  2.03562E+01  2.03364E+01  2.00589E+01  6.76404E-02 -1.10567E+00  4.57255E-03  1.34580E+00 -5.05446E-04  5.89782E-04  6.30824E-05  2.42041E-02 -3.26755E+00 -1.97808E-03  3.11089E-05  3.07747E-05 -3.87950E-06  1.50000E+01
  2.03694E+01  2.03517E+01  2.00179E+01  9.33622E-03 -1.03482E+00  2.37618E-03  1.20530E+00 -6.66989E-04  8.50976E-04  2.27760E-05  2.32122E-02 -3.14711E+00 -5.18853E-04  3.37741E-05  2.95706E-05 -1.48743E-06  1.50000E+01
  2.03543E+01  2.03380E+01  2.00049E+01  6.14388E-02 -1.09714E+00 -5.14159E-04  1.11002E+00 -5.99329E-04  6.99196E-04  4.89823E-06  2.39295E-02 -3.35162E+00 -2.98551E-04  3.18204E-05  3.05513E-05 -2.32424E-07  1.50000E+01
  2.06828E+01  2.04534E+01  1.97251E+01 -4.57222E-01 -8.71250E-02 -1.76454E-01  4.40119E-01 -1.74647E-05  3.36524E-04  6.00972E-05 -8.78993E-03 -2.40263E-01  2.36707E-03  3.65552E-05  5.96141E-06  7.67655E-07  1.50000E+01
  2.06838E+01  2.04579E+01  1.96990E+01 -4.40368E-01 -1.69097E-01 -2.01471E-01  4.91263E-01 -3.46752E-05  3.67053E-04  5.87517E-05 -1.22405E-02 -4.94727E-01 -3.76416E-04  3.55454E-05  7.00810E-06  5.93706E-07  1.50000E+01
  2.06024E+01  2.04380E+01  1.97211E+01 -3.97458E-01 -3.15504E-01 -2.04783E-01  7.27903E-01 -1.01233E-04  5.51759E-04  2.83882E-05 -2.60283E-02 -9.44140E-01 -1.36213E-02  3.34888E-05  8.54667E-06  1.41939E-06  1.50000E+01
  2.02686E+01  2.02141E+01  2.01382E+01  1.63816E-01 -1.25338E+00 -3.43964E-03  9.90205E-01 -4.54712E-04  4.20690E-04  1.60573E-04  4.15898E-03 -4.18251E+00 -3.17122E-04  2.80959E-05  3.68419E-05 -3.35972E-06  1.50000E+01
  2.02573E+01  2.01941E+01  2.01506E+01  1.59771E-01 -1.25929E+00 -3.06252E-03  9.69896E-01 -4.20193E-04  3.89070E-04  1.66752E-04  3.53652E-03 -4.14338E+00 -1.40341E-04  2.84011E-05  3.76415E-05 -2.74533E-06  1.50000E+01
  2.02734E+01  2.02074E+01  2.01652E+01  1.63111E-01 -1.25867E+00 -4.13603E-03  9.82659E-01 -4.23578E-04  3.89485E-04  1.78858E-04  4.20200E-03 -4.12618E+00 -4.33210E-04  2.82474E-05  3.76604E-05 -2.59691E-06  1.50000E+01
  2.07026E+01  2.04538E+01  1.97391E+01 -4.71754E-01 -2.27024E-02 -1.57184E-01  3.40963E-01  2.37983E-06  2.48315E-04  4.96960E-05 -5.50991E-03 -4.59488E-02  3.82029E-03  3.83036E-05  5.71299E-06 -5.07208E-08  1.50000E+01
  2.06246E+01  2.04455E+01  1.96821E+01 -3.71964E-01 -4.12533E-01 -2.29967E-01  8.76391E-01 -1.38639E-04  6.10039E-04  2.29022E-05 -2.64214E-02 -1.25939E+00 -1.76215E-02  3.62662E-05  1.08294E-05  3.56833E-06  1.50000E+01
  2.06041E+01  2.04391E+01  1.96943E+01 -3.62087E-01 -4.37509E-01 -2.22174E-01  7.62357E-01 -1.36309E-04  5.66721E-04  7.52874E-06 -2.87576E-02 -1.33980E+00 -2.03211E-02  3.32443E-05  1.05408E-05  2.61892E-06  1.50000E+01
  2.03325E+01  2.02655E+01  2.01976E+01  1.62879E-01 -1.23816E+00 -5.69701E-03  1.09753E+00 -4.31065E-04  4.00009E-04  1.96657E-04  9.16069E-03 -3.85586E+00 -2.27989E-03  2.65153E-05  3.47194E-05 -2.51717E-06  1.50000E+01
  2.03435E+01  2.02850E+01  2.01862E+01  1.53026E-01 -1.21915E+00 -3.48059E-03  1.13796E+00 -4.38195E-04  4.20130E-04  1.85031E-04  1.23076E-02 -3.72826E+00 -3.12321E-03  2.67013E-05  3.37875E-05 -3.04097E-06  1.50000E+01
  2.03219E+01  2.02454E+01  2.02089E+01  1.66926E-01 -1.25273E+00 -6.68708E-03  1.05637E+00 -4.13039E-04  3.75258E-04  2.03267E-04  7.03545E-03 -3.95753E+00 -1.68249E-03  2.64282E-05  3.54884E-05 -2.01726E-06  1.50000E+01
  2.03121E+01  2.02922E+01  1.99660E+01  1.45575E-01 -1.20001E+00  1.24261E-04  1.23040E+00 -5.43348E-04  5.41327E-04 -4.25553E-05  1.22156E-02 -3.79657E+00  6.83134E-04  2.76269E-05  3.12986E-05  2.02215E-06  1.50000E+01
  2.06643E+01  2.04557E+01  1.96846E+01 -4.14949E-01 -2.69463E-01 -2.21121E-01  5.76135E-01 -6.93738E-05  4.58235E-04  5.33112E-05 -1.80038E-02 -8.05851E-01 -6.29692E-03  3.45485E-05  7.98057E-06  1.67279E-06  1.50000E+01
  2.06658E+01  2.04584E+01  1.96582E+01 -3.85000E-01 -3.81735E-01 -2.43121E-01  5.99916E-01 -8.74434E-05  4.47529E-04  3.42248E-05 -2.20391E-02 -1.16306E+00 -1.28018E-02  3.42252E-05  9.65321E-06  1.64341E-06  1.50000E+01
  2.06452E+01  2.04519E+01  1.96701E+01 -3.79410E-01 -3.94210E-01 -2.36820E-01  6.72661E-01 -1.12384E-04  5.28608E-04  3.03918E-05 -2.41206E-02 -1.20152E+00 -1.50438E-02  3.44935E-05  9.88418E-06  3.02402E-06  1.50000E+01
  2.05838E+01  2.04326E+01  1.97065E+01 -3.49086E-01 -4.69858E-01 -2.12979E-01  8.29051E-01 -1.63653E-04  6.10419E-04 -1.09385E-05 -3.06596E-02 -1.44587E+00 -2.27826E-02  3.36870E-05  1.15514E-05  3.47324E-06  1.50000E+01
  2.03760E+01  2.03431E+01  2.01246E+01  4.73267E-02 -1.08584E+00  1.56318E-02  1.29307E+00 -4.51509E-04  5.47158E-04  1.19076E-04  2.42947E-02 -3.22736E+00 -4.60317E-03  3.02552E-05  3.05036E-05 -7.10989E-06  1.50000E+01
  2.03631E+01  2.03267E+01  2.01371E+01  9.46472E-02 -1.14178E+00  7.21341E-03  1.34558E+00 -4.34229E-04  4.80760E-04  1.29237E-04  2.21098E-02 -3.35183E+00 -5.23774E-03  2.84457E-05  3.14001E-05 -5.76526E-06  1.50000E+01
  2.02646E+01  2.02197E+01  2.01105E+01  1.64104E-01 -1.24913E+00 -2.69114E-03  1.01785E+00 -4.89067E-04  4.54767E-04  1.38735E-04  4.13971E-03 -4.24699E+00 -2.40469E-04  2.83250E-05  3.61668E-05 -3.21828E-06  1.50000E+01
  2.02491E+01  2.02052E+01  2.00958E+01  1.61569E-01 -1.25148E+00 -1.85899E-03  1.01664E+00 -4.65305E-04  4.34262E-04  1.17878E-04  3.40015E-03 -4.19082E+00 -7.71396E-05  2.78307E-05  3.52511E-05 -2.76784E-06  1.50000E+01
  2.01052E+01  1.99407E+01  2.02248E+01  3.25827E-02 -1.24785E+00  0.00000E+00 -5.23702E-01  1.22846E-04 -2.17799E-05 -6.13468E-05  6.58418E+00  4.66354E+01 -3.97745E+01  3.53355E-05  4.46999E-05  1.45610E-06  1.50000E+01
  2.07448E+01  2.04717E+01  1.96895E+01 -4.63013E-01 -9.77986E-02 -1.92331E-01  3.50364E-02  1.69438E-06  9.36533E-05  1.92525E-05 -2.41898E-02 -7.06311E-02  1.49919E-02  1.90913E-05  3.78424E-06 -5.46604E-08  1.50000E+01
  2.07251E+01  2.04705E+01  1.96754E+01 -4.44759E-01 -1.72295E-01 -2.11969E-01  2.67948E-01 -9.44819E-06  2.29421E-04  4.36122E-05 -1.07575E-02 -5.11690E-01  4.71502E-04  3.72030E-05  7.74704E-06  1.63097E-06  1.50000E+01
  2.06063E+01  2.04391E+01  1.96675E+01 -3.17810E-01 -5.68052E-01 -2.33162E-01  7.28975E-01 -1.62136E-04  5.49729E-04 -1.89209E-05 -2.80566E-02 -1.76831E+00 -2.56346E-02  3.63284E-05  1.43200E-05  5.33030E-06  1.50000E+01
  2.05860E+01  2.04320E+01  1.96797E+01 -3.02172E-01 -6.00801E-01 -2.21184E-01  7.98160E-01 -1.83206E-04  5.60657E-04 -3.65945E-05 -2.79635E-02 -1.87759E+00 -2.66710E-02  3.43561E-05  1.47899E-05  6.29681E-06  1.50000E+01
  2.02706E+01  2.02450E+01  1.99823E+01  1.64271E-01 -1.23605E+00  5.68431E-04  1.14717E+00 -5.49636E-04  5.15923E-04 -2.36031E-05  5.26211E-03 -4.02193E+00  2.41109E-04  2.62838E-05  3.13427E-05  9.35382E-07  1.50000E+01
  2.03666E+01  2.03216E+01  2.01630E+01  1.06289E-01 -1.15774E+00  6.65902E-03  1.33603E+00 -4.40364E-04  4.72591E-04  1.56143E-04  2.08660E-02 -3.46102E+00 -5.52623E-03  2.83623E-05  3.24665E-05 -5.23635E-06  1.50000E+01
  2.02895E+01  2.02203E+01  2.01798E+01  1.65582E-01 -1.25743E+00 -5.22256E-03  9.91206E-01 -4.27395E-04  3.89586E-04  1.90777E-04  5.00709E-03 -4.08022E+00 -8.27100E-04  2.76596E-05  3.70142E-05 -2.30086E-06  1.50000E+01
  2.03057E+01  2.02330E+01  2.01944E+01  1.66935E-01 -1.25551E+00 -6.12516E-03  1.03973E+00 -4.17752E-04  3.79572E-04  1.96148E-04  5.92350E-03 -4.01675E+00 -1.20648E-03  2.70281E-05  3.62952E-05 -2.17376E-06  1.50000E+01
  2.01180E+01  1.99956E+01  2.01801E+01  6.70717E-02 -1.24827E+00 -4.99896E-04  4.06153E-01 -1.01888E-04  1.59265E-04  7.69622E-05  1.55973E-03 -3.92851E+00 -1.63882E-04  3.77991E-05  5.02646E-05 -1.78033E-06  1.50000E+01
  2.01011E+01  1.99832E+01  2.01670E+01  6.06857E-02 -1.24127E+00 -6.34063E-04  4.15805E-01 -1.02672E-04  1.61622E-04  7.30835E-05  1.63353E-03 -3.88212E+00 -2.39675E-04  3.85750E-05  5.01366E-05 -1.13011E-06  1.50000E+01
  2.06677E+01  2.04601E+01  1.96316E+01 -3.46520E-01 -5.06215E-01 -2.60227E-01  6.51570E-01 -1.17572E-04  4.77423E-04  1.35914E-05 -2.45221E-02 -1.56435E+00 -1.99176E-02  3.66901E-05  1.24517E-05  4.00424E-06  1.50000E+01
  2.02299E+01  2.01954E+01  2.00257E+01  1.59272E-01 -1.24981E+00 -2.71699E-04  9.65872E-01 -4.53142E-04  4.26791E-04  3.20949E-05  2.94525E-03 -4.09456E+00  9.39949E-06  2.64718E-05  3.22714E-05 -8.24350E-07  1.50000E+01
  2.02314E+01  2.01936E+01  2.00537E+01  1.58845E-01 -1.25095E+00 -7.27447E-04  1.01394E+00 -4.48391E-04  4.22228E-04  6.58680E-05  2.92132E-03 -4.12354E+00  1.52480E-05  2.70138E-05  3.33181E-05 -1.61531E-06  1.50000E+01
  2.03735E+01  2.03466E+01  2.00983E+01  3.33582E-02 -1.06736E+00  1.40801E-02  1.39012E+00 -4.94899E-04  6.13871E-04  1.03071E-04  2.45537E-02 -3.16312E+00 -3.42840E-03  3.09663E-05  2.96344E-05 -5.88854E-06  1.50000E+01
  2.03716E+01  2.03492E+01  2.00717E+01  2.19025E-02 -1.05207E+00  1.12282E-02  1.56488E+00 -5.26269E-04  6.67173E-04  7.99229E-05  2.42180E-02 -3.13386E+00 -2.25636E-03  3.24000E-05  2.97121E-05 -4.55222E-06  1.50000E+01
  2.02626E+01  2.01868E+01  2.01772E+01  1.58119E-01 -1.26474E+00 -3.61115E-03  9.43744E-01 -3.89934E-04  3.59426E-04  1.81656E-04  3.53620E-03 -4.12353E+00 -2.54401E-04  2.88792E-05  3.87355E-05 -1.76772E-06  1.50000E+01
  2.02521E+01  2.01658E+01  2.01891E+01  1.51266E-01 -1.26960E+00 -3.00144E-03  8.97872E-01 -3.55489E-04  3.30237E-04  1.81785E-04  3.05427E-03 -4.11806E+00 -1.43393E-04  2.90716E-05  3.94716E-05 -1.52298E-06  1.50000E+01
  2.02686E+01  2.01785E+01  2.02032E+01  1.55797E-01 -1.27128E+00 -4.05853E-03  8.93603E-01 -3.60162E-04  3.29696E-04  1.92035E-04  3.47196E-03 -4.11495E+00 -3.43411E-04  2.85519E-05  3.91385E-05 -1.41120E-06  1.50000E+01
  2.05659E+01  2.04248E+01  1.96920E+01 -2.82613E-01 -6.39656E-01 -2.07127E-01  1.06571E+00 -2.26389E-04  6.38569E-04 -5.81674E-05 -2.65127E-02 -2.00803E+00 -2.66218E-02  3.73387E-05  1.76252E-05  8.44302E-06  1.50000E+01
  2.02573E+01  2.02286E+01  2.00252E+01  1.64213E-01 -1.24241E+00 -4.35609E-04  1.04101E+00 -5.23652E-04  4.90851E-04  3.42493E-05  4.11369E-03 -4.13530E+00  6.77478E-05  2.68873E-05  3.24228E-05 -1.09748E-06  1.50000E+01
  2.02568E+01  2.02289E+01  1.99970E+01  1.64289E-01 -1.24208E+00  2.24953E-04  1.04381E+00 -5.25223E-04  4.91387E-04 -3.47596E-06  4.16852E-03 -4.07135E+00  1.28461E-04  2.62887E-05  3.15791E-05  1.64503E-07  1.50000E+01
  2.03702E+01  2.03509E+01  2.00450E+01  1.36827E-02 -1.04092E+00  7.20883E-03  1.50246E+00 -5.94699E-04  7.59445E-04  5.45725E-05  2.35079E-02 -3.13303E+00 -1.25226E-03  3.38820E-05  3.01481E-05 -3.19129E-06  1.50000E+01
  2.06472E+01  2.04531E+01  1.96434E+01 -3.39478E-01 -5.20957E-01 -2.52309E-01  6.94554E-01 -1.29795E-04  4.92765E-04  3.33803E-06 -2.59374E-02 -1.61226E+00 -2.18853E-02  3.44111E-05  1.20830E-05  3.73290E-06  1.50000E+01
  2.06267E+01  2.04461E+01  1.96554E+01 -3.30073E-01 -5.41473E-01 -2.43411E-01  9.41413E-01 -1.67178E-04  5.88906E-04 -7.84646E-06 -2.72533E-02 -1.68010E+00 -2.39173E-02  3.62267E-05  1.33515E-05  4.64790E-06  1.50000E+01
  2.02528E+01  2.02003E+01  2.01235E+01  1.60869E-01 -1.25490E+00 -2.46977E-03  9.88970E-01 -4.48132E-04  4.16381E-04  1.45850E-04  3.47289E-03 -4.17251E+00 -9.79830E-05  2.81223E-05  3.64710E-05 -2.99821E-06  1.50000E+01
  2.02372E+01  2.01861E+01  2.01091E+01  1.57176E-01 -1.25564E+00 -1.67036E-03  9.78460E-01 -4.32860E-04  4.04781E-04  1.28149E-04  3.00425E-03 -4.14551E+00  1.97560E-05  2.78821E-05  3.57824E-05 -2.63398E-06  1.50000E+01
  2.04011E+01  2.03762E+01  1.99897E+01 -1.36245E-01 -8.36675E-01 -5.31864E-03  1.45974E+00 -6.74046E-04  1.12954E-03 -1.67566E-05  6.32230E-04 -2.57650E+00 -3.10897E-04  3.57329E-05  2.35718E-05  6.27204E-07  1.50000E+01
  2.03848E+01  2.03641E+01  1.99764E+01 -5.57820E-02 -9.51233E-01 -7.93411E-03  1.67375E+00 -7.66448E-04  1.09400E-03 -3.98054E-05  1.58981E-02 -2.93589E+00  1.73599E-04  3.57528E-05  2.78208E-05  1.80756E-06  1.50000E+01
  2.03847E+01  2.03646E+01  2.00038E+01 -5.84003E-02 -9.47863E-01  2.40991E-04  1.64363E+00 -7.65564E-04  1.09794E-03  3.04148E-06  1.55802E-02 -2.90471E+00  4.13676E-05  3.54607E-05  2.73888E-05 -1.76776E-07  1.50000E+01
  2.06497E+01  2.04530E+01  1.96168E+01 -2.90441E-01 -6.54976E-01 -2.59807E-01  7.34240E-01 -1.53562E-04  4.83552E-04 -2.50608E-05 -2.42175E-02 -2.05125E+00 -2.67895E-02  3.60783E-05  1.54470E-05  6.25715E-06  1.50000E+01
  2.03827E+01  2.03333E+01  2.01769E+01  7.95641E-02 -1.12898E+00  1.50386E-02  1.30615E+00 -4.49689E-04  5.07169E-04  1.69149E-04  2.30498E-02 -3.41209E+00 -6.34133E-03  2.95894E-05  3.27662E-05 -6.55226E-06  1.50000E+01
  2.03790E+01  2.03386E+01  2.01508E+01  6.30354E-02 -1.10665E+00  1.59113E-02  1.44759E+00 -4.43753E-04  5.20541E-04  1.42078E-04  2.38323E-02 -3.31564E+00 -5.65449E-03  3.01981E-05  3.19355E-05 -7.17658E-06  1.50000E+01
  2.02338E+01  2.01905E+01  2.00815E+01  1.58166E-01 -1.25288E+00 -1.19532E-03  1.02390E+00 -4.44357E-04  4.16723E-04  9.87099E-05  2.94328E-03 -4.14204E+00  2.23400E-05  2.76145E-05  3.47057E-05 -2.39931E-06  1.50000E+01
  2.02851E+01  2.01910E+01  2.02173E+01  1.59798E-01 -1.27260E+00 -5.19852E-03  9.40189E-01 -3.60976E-04  3.26695E-04  1.99575E-04  3.97374E-03 -4.10102E+00 -5.87691E-04  2.79530E-05  3.84931E-05 -1.09646E-06  1.50000E+01
  2.03016E+01  2.02034E+01  2.02314E+01  1.63130E-01 -1.27352E+00 -6.32108E-03  9.09389E-01 -3.61063E-04  3.23274E-04  2.06854E-04  4.56732E-03 -4.07986E+00 -8.80826E-04  2.72773E-05  3.78383E-05 -1.00771E-06  1.50000E+01
  2.02952E+01  2.02123E+01  2.02059E+01  1.64716E-01 -1.26494E+00 -5.84094E-03  1.00406E+00 -3.90671E-04  3.53102E-04  1.99386E-04  4.78852E-03 -4.06910E+00 -8.47994E-04  2.74059E-05  3.73337E-05 -1.61171E-06  1.50000E+01
  2.00845E+01  1.99704E+01  2.01540E+01  5.40940E-02 -1.23426E+00 -7.52409E-04  4.30695E-01 -8.60831E-05  1.50192E-04  5.89008E-05  1.73275E-03 -3.82339E+00 -3.03322E-04  3.96500E-05  5.07980E-05 -7.39137E-07  1.50000E+01
  2.00738E+01  1.99497E+01  2.01652E+01  4.14951E-02 -1.23026E+00 -6.50338E-04  3.50401E-01  6.73910E-06  8.55524E-05  1.48137E-05  1.46795E-03 -3.78248E+00 -3.18664E-04  4.28950E-05  5.55011E-05 -2.39890E-06  1.50000E+01