 TITLE="3D TRIANGULAR SURFACE DATA"
VARIABLES="X","Y","Z","U","V","W","P", "Fex", "Fey", "Fez","Finx","Finy","Finz","WSSx","WSSy","WSSz","AMForce"
 ZONE T="unstruc"N=        1757 E=        3355 F=FEPOINT  ET=TRIANGLE
  2.03575E+01  1.96702E+01  2.00955E+01 -4.48909E-01  4.17359E-01  6.81767E-02 -9.35439E-01 -4.04637E-05 -3.87899E-04  1.26051E-05 -5.41931E-02  1.68116E+00  1.79993E-02  5.57782E-05 -1.48360E-05 -4.47022E-06  1.50000E+01
  2.03795E+01  1.96658E+01  2.00950E+01 -4.81583E-01  2.68464E-01  7.00374E-02 -6.11878E-01  8.86821E-06 -1.17198E-04 -2.74927E-07 -7.67003E-03  4.89154E-01  4.28290E-03  2.52033E-05 -4.05479E-06 -1.24598E-06  1.50000E+01
  2.03746E+01  1.96663E+01  2.00743E+01 -4.86829E-01  2.57023E-01  5.69758E-02 -6.23461E-01  7.30368E-06 -2.19454E-04  4.31417E-07 -3.08722E-02  6.93980E-01  1.49875E-02  3.82811E-05 -5.95978E-06 -1.59432E-06  1.50000E+01
  2.03549E+01  1.96729E+01  2.01266E+01 -4.16134E-01  5.22918E-01  8.39213E-02 -9.19589E-01 -2.70531E-05 -2.53185E-04  1.17670E-05 -3.29947E-02  1.81955E+00  1.92251E-02  4.75695E-05 -1.59362E-05 -6.46406E-06  1.50000E+01
  2.03757E+01  1.96669E+01  2.01159E+01 -4.67250E-01  3.47756E-01  8.26576E-02 -6.22875E-01  7.50300E-06 -1.61141E-04  1.76911E-06 -3.29134E-02  9.58762E-01  4.30655E-03  3.78567E-05 -8.08447E-06 -2.81492E-06  1.50000E+01
  2.03952E+01  1.96638E+01  2.01061E+01 -4.95079E-01  1.99183E-01  7.75451E-02 -6.25090E-01  1.91220E-05 -1.43481E-04 -2.49558E-06 -1.79515E-02  4.45248E-01  9.26646E-03  3.28544E-05 -3.66857E-06 -1.21656E-06  1.50000E+01
  2.03947E+01  1.96640E+01  2.00828E+01 -5.02165E-01  1.51534E-01  6.05507E-02 -6.37570E-01  2.17487E-05 -1.56488E-04 -3.16191E-06 -1.50497E-02  3.24225E-01  1.08590E-03  3.27883E-05 -2.72307E-06 -1.07681E-06  1.50000E+01
  2.03719E+01  1.96665E+01  2.00481E+01 -4.92073E-01  2.34826E-01  3.71615E-02 -7.48956E-01  4.44213E-06 -2.86574E-04  2.64607E-07 -2.98279E-02  6.82397E-01  6.39964E-03  4.23085E-05 -5.97133E-06 -1.23708E-06  1.50000E+01
  2.03528E+01  1.96703E+01  2.00647E+01 -4.57292E-01  3.87645E-01  4.69089E-02 -1.16485E+00 -5.66500E-05 -4.65875E-04  9.79364E-06 -3.59210E-02  1.32994E+00  5.84337E-03  4.90206E-05 -1.17312E-05 -3.03996E-06  1.50000E+01
  2.03507E+01  1.96701E+01  2.00364E+01 -4.63718E-01  3.65581E-01  2.68185E-02 -1.48441E+00 -4.34773E-05 -4.28429E-04  5.22880E-06 -3.39180E-02  1.17370E+00  3.82527E-03  4.62411E-05 -1.02441E-05 -1.48317E-06  1.50000E+01
  2.03746E+01  1.96683E+01  2.01419E+01 -4.44274E-01  4.38612E-01  9.81271E-02 -8.73732E-01  1.29806E-06 -1.65447E-04  4.17303E-06 -3.39805E-02  1.32781E+00  1.51997E-02  4.02085E-05 -1.08796E-05 -4.60411E-06  1.50000E+01
  2.03945E+01  1.96639E+01  2.01301E+01 -4.84582E-01  2.70461E-01  9.38302E-02 -6.35184E-01  1.75199E-05 -1.52572E-04 -1.69170E-06 -3.06699E-02  7.23294E-01  9.75587E-03  3.78432E-05 -5.88398E-06 -2.23558E-06  1.50000E+01
  2.03133E+01  1.96862E+01  2.00964E+01 -3.28399E-01  7.27272E-01  4.89776E-02 -7.38756E-01 -7.28880E-05 -2.96688E-04  2.27600E-05 -1.31108E-02  2.60318E+00  8.09204E-03  5.02366E-05 -2.47102E-05 -7.81627E-06  1.50000E+01
  2.03118E+01  1.96840E+01  2.00675E+01 -3.49582E-01  6.83330E-01  3.67849E-02 -9.05254E-01 -1.10871E-04 -4.05790E-04  2.28185E-05 -1.87738E-02  2.40132E+00  6.67561E-03  4.94498E-05 -2.21675E-05 -5.53683E-06  1.50000E+01
  2.02934E+01  1.96947E+01  2.00821E+01 -2.76847E-01  8.23821E-01  3.33955E-02 -9.45140E-01 -1.24524E-04 -3.45683E-04  3.15322E-05 -2.26914E-03  2.84361E+00  3.99191E-03  4.69676E-05 -2.69632E-05 -6.63380E-06  1.50000E+01
  2.03344E+01  1.96787E+01  2.01109E+01 -3.77589E-01  6.20906E-01  6.66221E-02 -8.21958E-01 -5.71768E-05 -3.26765E-04  1.99021E-05 -2.77550E-02  2.34826E+00  1.43761E-02  5.30801E-05 -2.15687E-05 -7.70636E-06  1.50000E+01
  2.03150E+01  1.96895E+01  2.01250E+01 -2.99192E-01  7.84925E-01  5.68042E-02 -8.30605E-01 -6.87809E-05 -2.54802E-04  2.86502E-05 -5.59097E-03  2.74449E+00  7.47615E-03  4.79882E-05 -2.64532E-05 -8.78288E-06  1.50000E+01
  2.03351E+01  1.96820E+01  2.01397E+01 -3.43621E-01  6.99871E-01  7.53479E-02 -8.47342E-01 -3.59617E-05 -2.17282E-04  1.75890E-05 -1.72559E-02  2.40807E+00  1.34025E-02  4.74911E-05 -2.29035E-05 -9.73734E-06  1.50000E+01
  2.03330E+01  1.96767E+01  2.00813E+01 -4.01397E-01  5.59945E-01  5.21000E-02 -1.00167E+00 -8.71982E-05 -4.54381E-04  2.08431E-05 -3.16518E-02  2.11295E+00  1.07363E-02  5.32837E-05 -1.89536E-05 -5.81881E-06  1.50000E+01
  2.03311E+01  1.96758E+01  2.00521E+01 -4.14803E-01  5.24708E-01  3.43671E-02 -1.21403E+00 -9.98597E-05 -5.09359E-04  1.53319E-05 -3.19464E-02  1.80711E+00  6.12341E-03  4.96496E-05 -1.63069E-05 -3.35866E-06  1.50000E+01
  2.04139E+01  1.96627E+01  2.00937E+01 -5.11137E-01  7.30143E-02  6.55201E-02 -5.56601E-01  3.23368E-05 -1.50011E-04 -6.42929E-06 -1.35128E-02  1.41077E-01  3.02781E-03  3.66805E-05 -1.37938E-06 -1.52165E-06  1.50000E+01
  2.04132E+01  1.96634E+01  2.00692E+01 -5.15255E-01  3.61859E-02  4.81129E-02 -5.67247E-01  3.57269E-05 -1.59481E-04 -6.08274E-06 -1.15164E-02  4.13612E-02  2.57301E-04  3.74415E-05 -6.54234E-07 -1.52463E-06  1.50000E+01
  2.04142E+01  1.96619E+01  2.01181E+01 -5.05801E-01  1.25898E-01  8.34150E-02 -5.65873E-01  3.03921E-05 -1.51870E-04 -6.04733E-06 -1.79295E-02  2.94473E-01  6.62831E-03  3.88431E-05 -2.62891E-06 -1.26394E-06  1.50000E+01
  2.03927E+01  1.96644E+01  2.00586E+01 -5.08058E-01  1.23841E-01  4.40339E-02 -6.70049E-01  2.65877E-05 -1.96559E-04 -3.18312E-06 -2.20148E-02  3.00841E-01  4.91812E-03  3.80352E-05 -2.66518E-06 -1.07720E-06  1.50000E+01
  2.04122E+01  1.96640E+01  2.00441E+01 -5.18639E-01  1.25951E-02  3.12573E-02 -5.84519E-01  3.96313E-05 -1.72665E-04 -4.57514E-06 -1.26174E-02 -2.52747E-02  1.10543E-03  3.94550E-05 -2.07817E-07 -1.16562E-06  1.50000E+01
  2.03299E+01  1.96754E+01  2.00237E+01 -4.22070E-01  5.05434E-01  1.56679E-02 -1.29265E+00 -8.33523E-05 -4.59376E-04  6.60960E-06 -3.22793E-02  1.66736E+00  2.53638E-03  4.77808E-05 -1.49613E-05 -1.40628E-06  1.50000E+01
  2.03706E+01  1.96666E+01  2.00211E+01 -4.95307E-01  2.20087E-01  1.66000E-02 -8.42585E-01  8.24077E-06 -2.89084E-04 -5.90418E-08 -2.91989E-02  6.42154E-01  2.23833E-03  4.33045E-05 -5.69062E-06 -5.97191E-07  1.50000E+01
  2.03497E+01  1.96701E+01  2.00087E+01 -4.66759E-01  3.55721E-01  6.37550E-03 -1.81219E+00 -2.47990E-05 -3.53668E-04  9.94489E-07 -3.43560E-02  1.11368E+00  5.85718E-04  4.54741E-05 -9.75259E-06 -4.50947E-07  1.50000E+01
  2.03171E+01  1.96938E+01  2.01528E+01 -2.64306E-01  8.48690E-01  5.96262E-02 -9.42490E-01 -5.49059E-05 -2.03389E-04  2.97255E-05  1.76799E-03  2.85361E+00  5.35921E-03  4.44828E-05 -2.78529E-05 -8.55190E-06  1.50000E+01
  2.03367E+01  1.96861E+01  2.01671E+01 -3.05072E-01  7.79551E-01  7.83285E-02 -9.61979E-01 -3.03010E-05 -1.76332E-04  1.96321E-05 -7.85698E-03  2.56660E+00  1.06439E-02  4.47598E-05 -2.51285E-05 -9.73321E-06  1.50000E+01
  2.07472E+01  1.96376E+01  1.97105E+01 -5.25349E-01 -7.22291E-02 -5.58171E-02 -1.44414E-01  4.34734E-05 -1.29915E-04  4.00383E-05 -1.72113E-03 -2.35357E-01  3.31420E-03  4.46163E-05 -1.86625E-06 -4.06902E-06  1.50000E+01
  2.07260E+01  1.96417E+01  1.97225E+01 -5.26386E-01 -8.49394E-02 -5.65276E-02 -1.50956E-01  4.53462E-05 -1.20451E-04  3.55013E-05 -1.48700E-03 -2.76170E-01  3.54725E-03  4.46351E-05 -9.99801E-07 -3.51374E-06  1.50000E+01
  2.07462E+01  1.96459E+01  1.97351E+01 -5.29860E-01 -9.27499E-02 -4.69293E-02 -1.31481E-01  4.50517E-05 -1.04287E-04  2.94946E-05 -1.48538E-03 -2.97362E-01  2.63635E-03  4.46998E-05 -1.40876E-06 -4.50205E-06  1.50000E+01
  2.07250E+01  1.96496E+01  1.97472E+01 -5.30647E-01 -1.04394E-01 -4.75242E-02 -1.44609E-01  4.59894E-05 -1.01913E-04  2.76738E-05 -1.32409E-03 -3.34431E-01  2.75348E-03  4.42712E-05 -6.23511E-07 -4.13088E-06  1.50000E+01
  2.07453E+01  1.96539E+01  1.97598E+01 -5.33849E-01 -1.10508E-01 -3.91510E-02 -7.19543E-02  4.58287E-05 -7.27270E-05  1.72284E-05 -1.33311E-03 -3.51450E-01  2.16231E-03  4.42221E-05 -9.71678E-07 -5.00818E-06  1.50000E+01
  2.08108E+01  1.96229E+01  1.96756E+01 -5.18692E-01 -2.47827E-02 -5.48171E-02 -1.46193E-01  4.28038E-05 -1.14419E-04  3.64822E-05 -2.37263E-03 -8.42559E-02  2.86309E-03  4.78489E-05 -4.51580E-06 -5.85786E-06  1.50000E+01
  2.07896E+01  1.96281E+01  1.96871E+01 -5.21608E-01 -4.20810E-02 -5.49521E-02 -2.26369E-01  4.09410E-05 -1.48853E-04  4.90340E-05 -2.17098E-03 -1.39155E-01  2.94830E-03  4.60355E-05 -3.60789E-06 -5.17908E-06  1.50000E+01
  2.08098E+01  1.96322E+01  1.96999E+01 -5.24440E-01 -4.98875E-02 -4.63168E-02 -1.51739E-01  4.29851E-05 -9.58277E-05  2.85452E-05 -1.92909E-03 -1.62104E-01  2.54399E-03  4.61573E-05 -4.01127E-06 -6.22796E-06  1.50000E+01
  2.04144E+01  1.96613E+01  2.01430E+01 -4.97577E-01  1.95052E-01  1.01304E-01 -5.90059E-01  2.68794E-05 -1.61239E-04 -5.44219E-06 -2.61153E-02  5.13762E-01  8.97722E-03  4.15550E-05 -4.43321E-06 -1.67606E-06  1.50000E+01
  2.08089E+01  1.96413E+01  1.97242E+01 -5.29429E-01 -7.22071E-02 -3.86061E-02 -1.22744E-01  4.55175E-05 -6.64165E-05  1.61701E-05 -1.62365E-03 -2.31673E-01  2.34022E-03  4.69699E-05 -3.67948E-06 -6.84350E-06  1.50000E+01
  2.08301E+01  1.96363E+01  1.97126E+01 -5.26844E-01 -5.69817E-02 -3.91112E-02 -1.00309E-01  4.65065E-05 -5.99228E-05  1.36644E-05 -1.68193E-03 -1.83908E-01  2.45788E-03  4.84044E-05 -4.57455E-06 -7.49797E-06  1.50000E+01
  2.04323E+01  1.96647E+01  2.00302E+01 -5.22975E-01 -7.13707E-02  1.97989E-02 -4.55334E-01  4.58140E-05 -1.23339E-04 -3.49428E-06 -5.32895E-03 -2.72501E-01 -3.76600E-04  3.99011E-05  1.72847E-06 -1.09966E-06  1.50000E+01
  2.04116E+01  1.96643E+01  2.00184E+01 -5.20409E-01 -1.71862E-04  1.38589E-02 -6.01282E-01  4.22271E-05 -1.80231E-04 -2.03792E-06 -1.19495E-02 -6.60822E-02  7.40595E-04  4.08772E-05  4.47646E-08 -5.53706E-07  1.50000E+01
  2.03550E+01  1.96757E+01  2.01543E+01 -3.82079E-01  6.16089E-01  9.33538E-02 -1.12152E+00 -2.54324E-05 -2.06692E-04  1.40729E-05 -2.52147E-02  2.00334E+00  1.74139E-02  4.41985E-05 -1.83256E-05 -8.64153E-06  1.50000E+01
  2.03565E+01  1.96792E+01  2.01811E+01 -3.43332E-01  7.07369E-01  9.73480E-02 -9.01772E-01 -3.27479E-05 -2.01335E-04  1.98152E-05 -1.82087E-02  2.26189E+00  1.59827E-02  4.34719E-05 -2.15802E-05 -9.60878E-06  1.50000E+01
  2.03751E+01  1.96702E+01  2.01682E+01 -4.14743E-01  5.33737E-01  1.09612E-01 -1.14632E+00 -1.70826E-05 -1.92633E-04  1.07442E-05 -3.23288E-02  1.64639E+00  1.94630E-02  4.02900E-05 -1.38438E-05 -6.99568E-06  1.50000E+01
  2.03293E+01  1.96753E+01  1.99958E+01 -4.23618E-01  5.02338E-01 -3.39714E-03 -1.36309E+00 -7.64318E-05 -4.34253E-04 -7.12043E-07 -3.25496E-02  1.61900E+00 -1.04663E-03  4.69465E-05 -1.45754E-05  2.03259E-07  1.50000E+01
  2.03700E+01  1.96667E+01  1.99941E+01 -4.95915E-01  2.18594E-01 -4.02016E-03 -9.02697E-01  9.09374E-06 -2.88271E-04  3.47736E-08 -2.94808E-02  6.33128E-01 -6.68594E-04  4.33532E-05 -5.63856E-06  5.01008E-08  1.50000E+01
  2.03494E+01  1.96702E+01  1.99813E+01 -4.65501E-01  3.61937E-01 -1.40021E-02 -1.78760E+00 -2.29490E-05 -3.37721E-04 -1.70877E-06 -3.46505E-02  1.11819E+00 -2.71183E-03  4.48561E-05 -9.77609E-06  5.69412E-07  1.50000E+01
  2.07646E+01  1.96655E+01  1.97972E+01 -5.39909E-01 -1.30542E-01 -2.59048E-02 -7.23425E-02  4.55462E-05 -6.21559E-05  1.28744E-05 -1.18385E-03 -4.12765E-01  1.69139E-03  4.39870E-05 -3.69500E-07 -4.81022E-06  1.50000E+01
  2.07858E+01  1.96622E+01  1.97850E+01 -5.38965E-01 -1.20690E-01 -2.55910E-02 -6.67398E-02  4.60816E-05 -5.20531E-05  9.72513E-06 -1.21208E-03 -3.82682E-01  1.85944E-03  4.50866E-05 -1.29755E-06 -5.66052E-06  1.50000E+01
  2.07655E+01  1.96581E+01  1.97724E+01 -5.36608E-01 -1.15740E-01 -3.19046E-02 -5.49873E-02  4.60521E-05 -5.54411E-05  1.09672E-05 -1.28950E-03 -3.67023E-01  1.90456E-03  4.46016E-05 -1.19844E-06 -5.53429E-06  1.50000E+01
  2.04339E+01  1.96618E+01  2.01054E+01 -5.16153E-01  9.81076E-03  6.88205E-02 -4.79614E-01  3.97176E-05 -1.35942E-04 -9.73346E-06 -9.42694E-03 -3.24850E-02  1.09431E-03  3.89346E-05  3.39118E-08 -2.23690E-06  1.50000E+01
  2.01130E+01  1.99111E+01  2.01915E+01  5.31711E-03  1.24750E+00 -4.59363E-04 -4.36953E-01  5.27766E-05 -5.30153E-05 -8.34049E-06  2.09304E-03  3.91635E+00  4.74276E-05  4.77678E-05 -5.70590E-05 -4.16557E-06  1.50000E+01
  2.01021E+01  1.99321E+01  2.02020E+01  3.08140E-03  1.25202E+00 -1.68942E-04 -5.20042E-01  1.48033E-04  1.04157E-05 -7.58616E-05  1.54667E-03  3.93071E+00  3.34262E-04  5.87276E-05 -6.82037E-05 -2.37888E-06  1.50000E+01
  2.01206E+01  1.99224E+01  2.02149E+01  3.12432E-03  1.25113E+00 -2.16907E-04 -3.37384E-01  1.17977E-04 -2.72335E-05 -5.15025E-05  1.88725E-03  3.93832E+00  3.38012E-04  6.03306E-05 -7.38555E-05 -4.80283E-06  1.50000E+01
  2.08282E+01  1.96543E+01  1.97612E+01 -5.35860E-01 -9.78184E-02 -2.58189E-02 -2.46927E-02  4.86765E-05  1.85523E-05 -1.54114E-05 -1.25900E-03 -3.12217E-01  2.29883E-03  4.82309E-05 -3.32886E-06 -7.42108E-06  1.50000E+01
  2.08494E+01  1.96497E+01  1.97496E+01 -5.33632E-01 -8.45331E-02 -2.67091E-02  7.67861E-03  2.47391E-05  9.28972E-06 -8.03579E-06 -3.71228E-04 -1.28303E-01  5.20656E-03  2.47159E-05 -2.03563E-06 -3.91948E-06  1.50000E+01
  2.08292E+01  1.96455E+01  1.97369E+01 -5.31654E-01 -7.85311E-02 -3.21171E-02 -7.57362E-02  4.83827E-05 -1.55789E-05 -3.26641E-06 -1.43789E-03 -2.51572E-01  2.37378E-03  4.88589E-05 -4.05193E-06 -7.64451E-06  1.50000E+01
  2.07665E+01  1.96501E+01  1.97478E+01 -5.32863E-01 -9.89116E-02 -3.87415E-02 -1.01560E-01  4.56976E-05 -7.94172E-05  1.97664E-05 -1.43547E-03 -3.15092E-01  2.17153E-03  4.50921E-05 -1.91425E-06 -5.78139E-06  1.50000E+01
  2.07867E+01  1.96543E+01  1.97604E+01 -5.35430E-01 -1.04481E-01 -3.16478E-02 -6.37202E-02  4.64226E-05 -5.13965E-05  9.49739E-06 -1.34871E-03 -3.32209E-01  2.03006E-03  4.60813E-05 -2.25921E-06 -6.65053E-06  1.50000E+01
  2.03292E+01  1.96757E+01  1.99682E+01 -4.19128E-01  5.16252E-01 -2.20225E-02 -1.34209E+00 -7.37366E-05 -4.12210E-04 -7.44547E-06 -3.18557E-02  1.64425E+00 -4.36893E-03  4.63327E-05 -1.48496E-05  1.85833E-06  1.50000E+01
  2.03105E+01  1.96828E+01  2.00388E+01 -3.62656E-01  6.55793E-01  2.17815E-02 -1.04292E+00 -1.41865E-04 -4.94965E-04  1.68280E-05 -2.17434E-02  2.22792E+00  3.80390E-03  4.86864E-05 -2.04987E-05 -2.87395E-06  1.50000E+01
  2.03098E+01  1.96823E+01  2.00104E+01 -3.68448E-01  6.43967E-01  5.51827E-03 -1.06408E+00 -1.58892E-04 -5.42964E-04  5.50241E-06 -2.30402E-02  2.13379E+00  7.92957E-04  4.80434E-05 -1.96818E-05 -7.49832E-07  1.50000E+01
  2.07906E+01  1.96190E+01  1.96628E+01 -5.15526E-01 -1.52541E-02 -6.47115E-02 -1.97923E-01  3.99007E-05 -1.55004E-04  5.22755E-05 -2.72309E-03 -5.70589E-02  3.54233E-03  4.70544E-05 -4.03347E-06 -4.68892E-06  1.50000E+01
  2.07241E+01  1.96572E+01  1.97720E+01 -5.34437E-01 -1.21012E-01 -3.96801E-02 -5.59518E-02  4.58367E-05 -6.80970E-05  1.56022E-05 -1.22842E-03 -3.84431E-01  2.18666E-03  4.38624E-05 -1.36928E-07 -4.40810E-06  1.50000E+01
  2.07444E+01  1.96614E+01  1.97846E+01 -5.37383E-01 -1.26000E-01 -3.23188E-02 -5.07555E-02  4.58648E-05 -5.40330E-05  1.07439E-05 -1.22869E-03 -3.98782E-01  1.82125E-03  4.43626E-05 -3.31463E-07 -4.88327E-06  1.50000E+01
  2.02919E+01  1.96925E+01  2.00535E+01 -2.94437E-01  7.93205E-01  2.33836E-02 -1.16282E+00 -1.97152E-04 -5.00181E-04  3.18267E-05 -6.78198E-03  2.70539E+00  3.32586E-03  4.69969E-05 -2.52009E-05 -4.24687E-06  1.50000E+01
  2.02731E+01  1.97023E+01  2.00396E+01 -2.39461E-01  8.88521E-01  1.29669E-02 -1.04537E+00 -2.37812E-04 -5.06173E-04  2.86335E-05  2.87227E-03  2.97398E+00  1.21216E-03  4.52372E-05 -2.80144E-05 -3.40860E-06  1.50000E+01
  2.02744E+01  1.97042E+01  2.00679E+01 -2.26387E-01  9.08026E-01  2.08668E-02 -9.25551E-01 -1.57007E-04 -3.58265E-04  3.33068E-05  5.53308E-03  3.06480E+00  1.37292E-03  4.45294E-05 -2.89326E-05 -5.46807E-06  1.50000E+01
  2.04334E+01  1.96630E+01  2.00806E+01 -5.18876E-01 -2.90147E-02  5.16615E-02 -4.64473E-01  4.12956E-05 -1.28554E-04 -8.43734E-06 -6.72993E-03 -1.42851E-01 -3.89133E-04  3.80656E-05  8.41650E-07 -2.32668E-06  1.50000E+01
  2.04329E+01  1.96640E+01  2.00556E+01 -5.21163E-01 -5.55972E-02  3.54084E-02 -4.56696E-01  4.35544E-05 -1.24919E-04 -6.29464E-06 -5.37143E-03 -2.22298E-01 -1.11616E-03  3.87618E-05  1.37797E-06 -1.81513E-06  1.50000E+01
  2.04526E+01  1.96662E+01  2.00168E+01 -5.24776E-01 -1.29061E-01  1.02984E-02 -3.33064E-01  4.69977E-05 -7.46236E-05 -1.45239E-06 -1.25499E-03 -4.37013E-01 -5.08116E-04  4.04217E-05  3.08817E-06 -5.76810E-07  1.50000E+01
  2.04320E+01  1.96650E+01  2.00046E+01 -5.23907E-01 -7.71314E-02  4.18628E-03 -4.55532E-01  4.71283E-05 -1.24394E-04 -5.00575E-07 -5.07005E-03 -2.92968E-01  2.85894E-04  4.07248E-05  1.87517E-06 -1.63569E-07  1.50000E+01
  2.07877E+01  1.96459E+01  1.97359E+01 -5.31413E-01 -8.61675E-02 -3.85262E-02 -1.19453E-01  4.50536E-05 -8.04095E-05  2.09908E-05 -1.53359E-03 -2.75318E-01  2.23445E-03  4.59569E-05 -2.77414E-06 -6.25583E-06  1.50000E+01
  2.07886E+01  1.96372E+01  1.97115E+01 -5.26844E-01 -6.55037E-02 -4.62681E-02 -1.41586E-01  4.34079E-05 -1.13520E-04  3.42692E-05 -1.79683E-03 -2.11352E-01  2.52795E-03  4.59737E-05 -3.29143E-06 -5.94188E-06  1.50000E+01
  2.07048E+01  1.96453E+01  1.97346E+01 -5.27003E-01 -9.60195E-02 -5.74126E-02 -1.63872E-01  4.63486E-05 -1.29192E-04  3.75132E-05 -1.24983E-03 -3.12070E-01  3.80109E-03  4.39373E-05 -1.43070E-07 -2.85741E-06  1.50000E+01
  2.02977E+01  1.97024E+01  2.01384E+01 -2.22981E-01  9.13049E-01  4.26995E-02 -8.88650E-01 -8.62144E-05 -2.37926E-04  4.03343E-05  9.02035E-03  3.08188E+00  1.34844E-03  4.37124E-05 -3.00932E-05 -7.48278E-06  1.50000E+01
  2.02820E+01  1.97171E+01  2.01514E+01 -1.56820E-01  1.00839E+00  2.81212E-02 -8.79106E-01 -8.83548E-05 -2.05107E-04  4.81153E-05  1.61814E-02  3.34834E+00 -2.81793E-03  4.05505E-05 -3.26376E-05 -5.99684E-06  1.50000E+01
  2.03008E+01  1.97078E+01  2.01657E+01 -1.90389E-01  9.62976E-01  4.14920E-02 -8.67438E-01 -6.73168E-05 -1.89596E-04  4.11810E-05  1.38648E-02  3.19267E+00 -1.11725E-03  4.21302E-05 -3.17915E-05 -6.68727E-06  1.50000E+01
  2.08079E+01  1.96501E+01  1.97485E+01 -5.33796E-01 -9.21145E-02 -3.16682E-02 -8.66113E-02  4.69025E-05 -3.07523E-05  2.42598E-06 -1.40208E-03 -2.93905E-01  2.19882E-03  4.70654E-05 -3.14762E-06 -7.12809E-06  1.50000E+01
  2.07270E+01  1.96334E+01  1.96978E+01 -5.21558E-01 -6.17835E-02 -6.69733E-02 -1.82393E-01  4.35575E-05 -1.46732E-04  4.58343E-05 -1.77115E-03 -2.07368E-01  4.59917E-03  4.46503E-05 -1.56750E-06 -3.42958E-06  1.50000E+01
  2.07058E+01  1.96374E+01  1.97098E+01 -5.22451E-01 -7.33848E-02 -6.81079E-02 -1.88348E-01  4.49445E-05 -1.38605E-04  4.23771E-05 -1.45396E-03 -2.45416E-01  4.97494E-03  4.40655E-05 -5.20214E-07 -2.23377E-06  1.50000E+01
  2.03766E+01  1.96729E+01  2.01945E+01 -3.77878E-01  6.33583E-01  1.15554E-01 -9.79667E-01 -2.22080E-05 -1.84513E-04  1.46628E-05 -2.77713E-02  1.98082E+00  2.07928E-02  4.17740E-05 -1.79510E-05 -8.96252E-06  1.50000E+01
  2.03954E+01  1.96654E+01  2.01814E+01 -4.41664E-01  4.53330E-01  1.23631E-01 -6.17563E-01  2.56248E-06 -1.56327E-04  1.93241E-06 -3.67113E-02  1.35973E+00  2.09198E-02  3.92156E-05 -1.09406E-05 -6.69277E-06  1.50000E+01
  2.03589E+01  1.96835E+01  2.02074E+01 -2.99008E-01  7.98125E-01  9.52886E-02 -7.80478E-01 -2.99411E-05 -1.71037E-04  2.39843E-05 -7.93005E-03  2.55575E+00  1.24056E-02  4.41555E-05 -2.57839E-05 -9.52879E-06  1.50000E+01
  2.03698E+01  1.96667E+01  1.99672E+01 -4.93393E-01  2.33206E-01 -2.44501E-02 -1.14793E+00  6.77330E-06 -2.85764E-04 -1.44653E-07 -3.00563E-02  6.77586E-01 -3.11629E-03  4.30688E-05 -5.96258E-06  6.66148E-07  1.50000E+01
  2.07684E+01  1.96331E+01  1.96987E+01 -5.23791E-01 -5.79220E-02 -5.52907E-02 -2.07788E-01  4.16152E-05 -1.61345E-04  5.24868E-05 -1.95261E-03 -1.89611E-01  3.09909E-03  4.53291E-05 -2.78795E-06 -4.76168E-06  1.50000E+01
  2.07694E+01  1.96241E+01  1.96743E+01 -5.18219E-01 -3.25956E-02 -6.53228E-02 -2.52782E-01  3.93554E-05 -1.86942E-04  6.35608E-05 -2.41227E-03 -1.12727E-01  3.84110E-03  4.58107E-05 -3.07360E-06 -3.84600E-06  1.50000E+01
  2.07482E+01  1.96290E+01  1.96860E+01 -5.20188E-01 -4.81506E-02 -6.60579E-02 -2.50389E-01  4.11659E-05 -1.72077E-04  5.68486E-05 -2.09562E-03 -1.63007E-01  4.20933E-03  4.49705E-05 -2.23246E-06 -3.40540E-06  1.50000E+01
  2.06846E+01  1.96410E+01  1.97220E+01 -5.22977E-01 -8.28933E-02 -6.94735E-02 -1.74811E-01  4.67850E-05 -1.38839E-04  4.14788E-05 -1.15101E-03 -2.77090E-01  5.33337E-03  4.40727E-05  2.50485E-07 -1.66562E-06  1.50000E+01
  2.04544E+01  1.96614E+01  2.01175E+01 -5.18724E-01 -3.77140E-02  7.04647E-02 -4.18603E-01  4.43489E-05 -1.18148E-04 -1.19580E-05 -5.46212E-03 -1.68748E-01 -1.35369E-03  4.04790E-05  1.24467E-06 -2.59647E-06  1.50000E+01
  2.04344E+01  1.96605E+01  2.01303E+01 -5.12363E-01  6.23084E-02  8.68543E-02 -5.24743E-01  3.88572E-05 -1.49188E-04 -9.98841E-06 -1.38873E-02  1.19303E-01  3.24730E-03  4.20763E-05 -1.23082E-06 -1.44999E-06  1.50000E+01
  2.02953E+01  1.96980E+01  2.01105E+01 -2.52531E-01  8.65100E-01  4.00353E-02 -8.08639E-01 -9.12294E-05 -2.65685E-04  3.38045E-05  3.19347E-03  2.97288E+00  3.28032E-03  4.55457E-05 -2.84834E-05 -7.50356E-06  1.50000E+01
  2.02763E+01  1.97074E+01  2.00961E+01 -2.07285E-01  9.36389E-01  2.62936E-02 -8.93440E-01 -1.14569E-04 -2.73518E-04  3.68193E-05  9.19217E-03  3.16501E+00  6.42902E-04  4.31782E-05 -2.98619E-05 -6.17661E-06  1.50000E+01
  2.01100E+01  1.99440E+01  2.02248E+01 -7.19563E-06  1.25599E+00  0.00000E+00 -3.33498E-02  1.29606E-04  4.03362E-05 -7.56788E-05  3.03388E+00 -3.94713E+01 -3.76918E+01  3.59254E-05 -4.04961E-05  5.40112E-07  1.50000E+01
  2.08513E+01  1.96311E+01  1.97012E+01 -5.23609E-01 -4.04856E-02 -4.02056E-02 -9.18837E-02  2.29782E-05 -3.13463E-05  7.45961E-06  1.15320E-04 -5.74203E-02  5.84986E-03  2.41699E-05 -2.54020E-06 -3.84566E-06  1.50000E+01
  2.08311E+01  1.96269E+01  1.96884E+01 -5.21326E-01 -3.29654E-02 -4.67346E-02 -1.32147E-01  4.52839E-05 -7.93708E-05  2.21043E-05 -2.02915E-03 -1.08750E-01  2.60674E-03  4.85674E-05 -4.94185E-06 -6.99168E-06  1.50000E+01
  2.07068E+01  1.96293E+01  1.96851E+01 -5.17255E-01 -4.54395E-02 -8.07479E-02 -3.04611E-01  4.27240E-05 -1.76422E-04  5.65187E-05 -1.88334E-03 -1.63444E-01  6.35362E-03  4.41500E-05 -9.61257E-07 -1.64623E-06  1.50000E+01
  2.06856E+01  1.96333E+01  1.96971E+01 -5.18111E-01 -5.46128E-02 -8.25471E-02 -2.19091E-01  4.54715E-05 -1.64512E-04  5.04852E-05 -1.53976E-03 -1.94616E-01  6.78414E-03  4.45997E-05 -3.09930E-07 -1.42689E-06  1.50000E+01
  2.03095E+01  1.96825E+01  1.99825E+01 -3.67120E-01  6.48097E-01 -1.08716E-02 -1.09743E+00 -1.50537E-04 -5.14529E-04 -7.17297E-06 -2.27712E-02  2.11112E+00 -2.14147E-03  4.71394E-05 -1.94512E-05  1.42630E-06  1.50000E+01
  2.04349E+01  1.96591E+01  2.01555E+01 -5.06091E-01  1.29637E-01  1.05583E-01 -5.66641E-01  3.34412E-05 -1.69666E-04 -1.05608E-05 -2.04984E-02  3.23159E-01  6.05983E-03  4.32589E-05 -2.84353E-06 -1.70231E-06  1.50000E+01
  2.03199E+01  1.96991E+01  2.01799E+01 -2.26229E-01  9.12442E-01  5.76827E-02 -9.31059E-01 -4.87207E-05 -1.74156E-04  3.37442E-05  8.82241E-03  2.99995E+00  2.09185E-03  4.25840E-05 -2.98337E-05 -7.38686E-06  1.50000E+01
  2.03392E+01  1.96911E+01  2.01938E+01 -2.62911E-01  8.57247E-01  7.59352E-02 -8.37344E-01 -3.52591E-05 -1.64558E-04  2.73800E-05  1.33008E-03  2.78158E+00  6.72350E-03  4.31070E-05 -2.77061E-05 -8.27457E-06  1.50000E+01
  2.01240E+01  1.98905E+01  2.01806E+01  6.32062E-03  1.24213E+00 -7.67437E-04 -3.73416E-01  2.25750E-05 -6.92989E-05  1.05815E-05  2.46921E-03  3.90991E+00 -2.40069E-05  4.43473E-05 -5.10296E-05 -2.42108E-06  1.50000E+01
  2.01061E+01  1.99010E+01  2.01675E+01  6.65711E-03  1.24482E+00 -6.05281E-04 -3.61322E-01  2.79948E-05 -6.88001E-05  8.17146E-06  2.06164E-03  3.89382E+00 -1.50908E-05  4.59324E-05 -5.20892E-05 -2.28040E-06  1.50000E+01
  2.07704E+01  1.96152E+01  1.96499E+01 -5.11656E-01 -2.76009E-03 -7.68645E-02 -2.95777E-01  3.68262E-05 -1.94399E-04  6.66398E-05 -3.10585E-03 -2.27965E-02  4.75766E-03  4.60361E-05 -3.49789E-06 -3.37723E-06  1.50000E+01
  2.02550E+01  1.97132E+01  2.00259E+01 -1.88345E-01  9.68138E-01  5.85983E-03 -9.28800E-01 -2.36562E-04 -4.42661E-04  1.95054E-05  8.96574E-03  3.19641E+00  2.36580E-04  4.21570E-05 -2.92344E-05 -2.08942E-06  1.50000E+01
  2.02561E+01  1.97148E+01  2.00539E+01 -1.79779E-01  9.79237E-01  1.17579E-02 -8.06696E-01 -1.76341E-04 -3.47234E-04  3.10351E-05  1.01852E-02  3.25284E+00  5.19606E-05  4.18538E-05 -2.99274E-05 -3.63274E-06  1.50000E+01
  2.04539E+01  1.96631E+01  2.00925E+01 -5.20618E-01 -7.57206E-02  5.39315E-02 -3.90632E-01  4.40946E-05 -1.01885E-04 -9.52213E-06 -3.06404E-03 -2.76583E-01 -1.96048E-03  3.87143E-05  1.98171E-06 -2.54915E-06  1.50000E+01
  2.04534E+01  1.96646E+01  2.00674E+01 -5.22228E-01 -1.02819E-01  3.85799E-02 -3.51997E-01  4.46460E-05 -8.77598E-05 -6.53704E-06 -1.78063E-03 -3.54818E-01 -2.00483E-03  3.86684E-05  2.48593E-06 -1.95947E-06  1.50000E+01
  2.02859E+01  1.97237E+01  2.01782E+01 -1.29052E-01  1.04603E+00  2.49388E-02 -7.40561E-01 -9.13281E-05 -1.95708E-04  5.76190E-05  1.85866E-02  3.43950E+00 -4.87152E-03  3.86829E-05 -3.37024E-05 -5.38751E-06  1.50000E+01
  2.02721E+01  1.97410E+01  2.01904E+01 -8.25049E-02  1.10448E+00  1.22017E-02 -6.61515E-01 -1.08020E-04 -1.96685E-04  7.22125E-05  1.76032E-02  3.60309E+00 -5.82392E-03  3.66704E-05 -3.56964E-05 -4.80955E-06  1.50000E+01
  2.02905E+01  1.97313E+01  2.02045E+01 -1.01952E-01  1.08166E+00  1.99277E-02 -6.82566E-01 -8.57340E-05 -1.76685E-04  6.22981E-05  1.96772E-02  3.52725E+00 -6.62982E-03  3.71359E-05 -3.51931E-05 -5.22870E-06  1.50000E+01
  2.06645E+01  1.96368E+01  1.97093E+01 -5.18663E-01 -6.11078E-02 -8.46486E-02 -2.21902E-01  4.66827E-05 -1.53184E-04  4.57142E-05 -1.26075E-03 -2.17533E-01  7.12742E-03  4.41222E-05  3.88538E-07 -7.96713E-07  1.50000E+01
  2.02910E+01  1.96914E+01  2.00251E+01 -3.04642E-01  7.75546E-01  1.11435E-02 -1.35895E+00 -2.65032E-04 -6.48130E-04  1.98056E-05 -9.45413E-03  2.59940E+00  1.65660E-03  4.65057E-05 -2.39532E-05 -2.11918E-06  1.50000E+01
  2.02905E+01  1.96911E+01  1.99970E+01 -3.07320E-01  7.71628E-01 -2.01319E-03 -1.39574E+00 -2.79854E-04 -6.80375E-04 -1.39914E-06 -1.00888E-02  2.54657E+00 -3.05092E-04  4.57623E-05 -2.33383E-05  3.74183E-07  1.50000E+01
  2.04530E+01  1.96656E+01  2.00422E+01 -5.23667E-01 -1.20291E-01  2.41676E-02 -3.38022E-01  4.57220E-05 -7.85946E-05 -3.87351E-06 -1.23433E-03 -4.08052E-01 -1.54203E-03  3.93801E-05  2.85364E-06 -1.38361E-06  1.50000E+01
  2.07492E+01  1.96202E+01  1.96615E+01 -5.14164E-01 -1.93665E-02 -7.79837E-02 -2.90806E-01  3.85002E-05 -2.01529E-04  6.84685E-05 -2.68621E-03 -7.70071E-02  5.29817E-03  4.55349E-05 -2.55938E-06 -2.54113E-06  1.50000E+01
  2.07280E+01  1.96250E+01  1.96732E+01 -5.15983E-01 -3.36509E-02 -7.92443E-02 -2.82895E-01  4.07474E-05 -1.91252E-04  6.30949E-05 -2.27740E-03 -1.24107E-01  5.84979E-03  4.48155E-05 -1.81772E-06 -2.32162E-06  1.50000E+01
  2.02788E+01  1.97117E+01  2.01240E+01 -1.83517E-01  9.70886E-01  2.87172E-02 -8.85192E-01 -1.04678E-04 -2.43606E-04  4.43578E-05  1.29087E-02  3.25871E+00 -8.59964E-04  4.20453E-05 -3.13415E-05 -6.41927E-06  1.50000E+01
  2.02604E+01  1.97217E+01  2.01097E+01 -1.47618E-01  1.02141E+00  1.80679E-02 -9.43759E-01 -1.19867E-04 -2.45945E-04  4.58921E-05  1.43724E-02  3.39779E+00 -1.79890E-03  4.00608E-05 -3.17692E-05 -4.89997E-06  1.50000E+01
  2.04933E+01  1.96702E+01  1.99903E+01 -5.27885E-01 -1.86294E-01 -3.17409E-03 -1.98190E-01  4.65562E-05 -2.81762E-05  1.36382E-07  3.70052E-04 -5.93747E-01  3.12779E-04  4.23949E-05  4.57522E-06 -2.09710E-07  1.50000E+01
  2.04728E+01  1.96679E+01  1.99779E+01 -5.26496E-01 -1.62590E-01 -9.56627E-03 -2.52880E-01  4.71913E-05 -4.76352E-05  1.05064E-06  5.41732E-05 -5.33614E-01  9.42616E-04  4.13767E-05  3.95087E-06  2.01531E-07  1.50000E+01
  2.04730E+01  1.96681E+01  2.00035E+01 -5.26162E-01 -1.65499E-01  2.74528E-03 -2.50362E-01  4.67608E-05 -4.28505E-05 -1.83413E-07  2.39232E-04 -5.38117E-01 -1.36773E-04  4.13549E-05  4.00654E-06 -8.79003E-08  1.50000E+01
  2.07502E+01  1.96115E+01  1.96370E+01 -5.06927E-01  1.57323E-02 -9.19993E-02 -3.33061E-01  3.35571E-05 -2.38257E-04  8.15104E-05 -3.63110E-03  2.74549E-02  6.40987E-03  4.52750E-05 -2.80011E-06 -1.39242E-06  1.50000E+01
  2.04556E+01  1.96573E+01  2.01680E+01 -5.11213E-01  7.70688E-02  1.07427E-01 -4.98928E-01  3.77750E-05 -1.64445E-04 -1.59303E-05 -1.50761E-02  1.68553E-01  2.71158E-03  4.24811E-05 -1.29575E-06 -2.66347E-06  1.50000E+01
  2.04550E+01  1.96594E+01  2.01427E+01 -5.15966E-01  1.27090E-02  8.83114E-02 -4.52016E-01  4.48111E-05 -1.39066E-04 -1.30472E-05 -9.38333E-03 -2.28953E-02  1.05202E-04  4.39878E-05  5.84363E-08 -1.37790E-06  1.50000E+01
  2.02579E+01  1.97177E+01  2.00819E+01 -1.65824E-01  9.97592E-01  1.59911E-02 -9.03254E-01 -1.21639E-04 -2.58316E-04  3.42428E-05  1.21957E-02  3.32355E+00 -6.39654E-04  4.10777E-05 -3.07730E-05 -4.68031E-06  1.50000E+01
  2.03091E+01  1.97220E+01  2.02184E+01 -1.23888E-01  1.05643E+00  3.00678E-02 -6.58700E-01 -6.87219E-05 -1.63349E-04  5.41601E-05  2.08977E-02  3.43638E+00 -6.87197E-03  3.78636E-05 -3.46882E-05 -5.80829E-06  1.50000E+01
  2.03278E+01  1.97129E+01  2.02322E+01 -1.48027E-01  1.02858E+00  4.26214E-02 -7.76613E-01 -5.91669E-05 -1.58369E-04  4.99076E-05  2.08505E-02  3.33304E+00 -6.27739E-03  3.87822E-05 -3.39543E-05 -6.18705E-06  1.50000E+01
  2.03234E+01  1.97055E+01  2.02063E+01 -1.86727E-01  9.73213E-01  5.16268E-02 -7.42387E-01 -5.46169E-05 -1.66863E-04  4.25314E-05  1.58153E-02  3.17074E+00 -2.12107E-03  4.06033E-05 -3.18133E-05 -6.61495E-06  1.50000E+01
  2.00885E+01  1.99118E+01  2.01545E+01  6.90639E-03  1.24734E+00 -5.83500E-04 -3.37952E-01  3.73951E-05 -6.03244E-05  1.47762E-06  1.71783E-03  3.86448E+00 -5.42559E-05  4.55391E-05 -5.17402E-05 -3.00605E-06  1.50000E+01
  2.00770E+01  1.99316E+01  2.01656E+01  5.34515E-03  1.25088E+00 -4.63083E-04 -4.00760E-01  5.72020E-05 -5.10197E-05 -1.16494E-05  1.45681E-03  3.84624E+00 -5.59143E-05  4.86100E-05 -5.71014E-05 -5.86112E-06  1.50000E+01