 TITLE="3D TRIANGULAR SURFACE DATA"
VARIABLES="X","Y","Z","U","V","W","P", "Fex", "Fey", "Fez","Finx","Finy","Finz","WSSx","WSSy","WSSz","AMForce"
 ZONE T="unstruc"N=        1757 E=        3355 F=FEPOINT  ET=TRIANGLE
  2.03311E+01  2.01498E+01  2.00977E+01  2.87056E-01 -1.27291E+00  7.88563E-04  1.18431E+00 -5.82808E-04  5.57295E-04  1.43054E-04  3.19806E-03 -5.26531E+00  4.29649E-04  3.00802E-05  3.62885E-05 -3.32290E-06  1.50000E+01
  2.03461E+01  2.01673E+01  2.00978E+01  2.95072E-01 -1.27721E+00  3.36736E-04  1.18168E+00 -2.73628E-04  2.60798E-04  6.55014E-05  8.48282E-04 -2.47747E+00 -5.10109E-04  1.41755E-05  1.71589E-05 -1.59281E-06  1.50000E+01
  2.03412E+01  2.01668E+01  2.00766E+01  2.94410E-01 -1.27353E+00  2.92243E-04  1.16011E+00 -4.06695E-04  3.89040E-04  7.54807E-05  2.25080E-03 -3.65060E+00 -8.27333E-04  2.06977E-05  2.47024E-05 -2.05301E-06  1.50000E+01
  2.03322E+01  2.01409E+01  2.01288E+01  2.83859E-01 -1.27708E+00  9.35332E-04  1.16844E+00 -4.88677E-04  4.65227E-04  1.56735E-04  2.32473E-03 -4.45532E+00  3.41708E-05  2.60638E-05  3.21073E-05 -3.10274E-06  1.50000E+01
  2.03455E+01  2.01601E+01  2.01190E+01  2.92737E-01 -1.27978E+00  6.45701E-04  1.17863E+00 -4.05011E-04  3.83463E-04  1.19097E-04  1.74936E-03 -3.64582E+00  5.55389E-04  2.11492E-05  2.60746E-05 -2.64198E-06  1.50000E+01
  2.03576E+01  2.01774E+01  2.01100E+01  2.99923E-01 -1.28129E+00  1.83244E-04  1.18357E+00 -3.47899E-04  3.30569E-04  9.25520E-05  1.49772E-03 -3.14154E+00 -2.70509E-04  1.81079E-05  2.21460E-05 -2.22057E-06  1.50000E+01
  2.03553E+01  2.01812E+01  2.00861E+01  3.00663E-01 -1.27771E+00  2.19235E-04  1.17327E+00 -3.49099E-04  3.33705E-04  7.14456E-05  1.71845E-03 -3.15133E+00  2.99871E-04  1.77949E-05  2.13393E-05 -1.90622E-06  1.50000E+01
  2.03378E+01  2.01677E+01  2.00496E+01  2.94258E-01 -1.27062E+00  3.23151E-04  1.17130E+00 -4.49788E-04  4.32061E-04  5.48532E-05  2.13077E-03 -3.96813E+00 -2.13333E-05  2.21463E-05  2.59354E-05 -1.54245E-06  1.50000E+01
  2.03256E+01  2.01508E+01  2.00662E+01  2.86753E-01 -1.26830E+00  6.87056E-04  1.15462E+00 -4.95118E-04  4.76993E-04  8.38617E-05  2.26110E-03 -4.46624E+00  5.17456E-04  2.51015E-05  2.95999E-05 -2.20147E-06  1.50000E+01
  2.03229E+01  2.01519E+01  2.00373E+01  2.86823E-01 -1.26580E+00  4.64136E-04  1.15800E+00 -4.70707E-04  4.53893E-04  4.48555E-05  2.13892E-03 -4.18995E+00  2.15156E-04  2.30545E-05  2.67550E-05 -1.17115E-06  1.50000E+01
  2.03476E+01  2.01529E+01  2.01452E+01  2.90574E-01 -1.28444E+00  6.84452E-04  1.16572E+00 -4.31104E-04  4.06981E-04  1.53632E-04  2.13729E-03 -3.93850E+00  2.98218E-04  2.32567E-05  2.91256E-05 -2.87549E-06  1.50000E+01
  2.03598E+01  2.01716E+01  2.01345E+01  2.98597E-01 -1.28558E+00  2.72498E-04  1.17876E+00 -4.02483E-04  3.80137E-04  1.30439E-04  2.05748E-03 -3.63433E+00  1.45783E-04  2.14161E-05  2.67203E-05 -2.80740E-06  1.50000E+01
  2.02994E+01  2.01129E+01  2.00969E+01  2.67527E-01 -1.26084E+00  1.18826E-03  1.15325E+00 -4.88309E-04  4.71410E-04  1.25747E-04  2.13034E-03 -4.47144E+00  1.06386E-04  2.58177E-05  3.07940E-05 -2.53476E-06  1.50000E+01
  2.02965E+01  2.01167E+01  2.00680E+01  2.68970E-01 -1.25748E+00  9.32880E-04  1.15236E+00 -4.80210E-04  4.65850E-04  8.73720E-05  2.19116E-03 -4.39382E+00  8.02403E-05  2.48519E-05  2.90681E-05 -1.86198E-06  1.50000E+01
  2.02833E+01  2.00982E+01  2.00822E+01  2.58630E-01 -1.25227E+00  1.14290E-03  1.13788E+00 -4.64868E-04  4.52333E-04  1.04466E-04  2.15483E-03 -4.27952E+00  7.98784E-05  2.45596E-05  2.88444E-05 -2.04529E-06  1.50000E+01
  2.03160E+01  2.01276E+01  2.01121E+01  2.76172E-01 -1.26919E+00  1.11030E-03  1.15788E+00 -5.24226E-04  5.02541E-04  1.51170E-04  2.40868E-03 -4.77709E+00  7.01390E-05  2.77550E-05  3.36460E-05 -3.07331E-06  1.50000E+01
  2.03028E+01  2.01074E+01  2.01254E+01  2.65343E-01 -1.26515E+00  1.37132E-03  1.13246E+00 -4.71948E-04  4.53350E-04  1.56299E-04  2.11745E-03 -4.37015E+00  1.04870E-04  2.58885E-05  3.15461E-05 -2.77770E-06  1.50000E+01
  2.03192E+01  2.01207E+01  2.01408E+01  2.73591E-01 -1.27400E+00  1.21703E-03  1.15874E+00 -4.68991E-04  4.46926E-04  1.69495E-04  2.22762E-03 -4.33878E+00  3.85558E-06  2.59145E-05  3.21340E-05 -2.98107E-06  1.50000E+01
  2.03128E+01  2.01324E+01  2.00824E+01  2.77780E-01 -1.26512E+00  9.41167E-04  1.17197E+00 -5.25933E-04  5.06619E-04  1.12816E-04  2.30386E-03 -4.78158E+00  1.15498E-04  2.70419E-05  3.20830E-05 -2.54902E-06  1.50000E+01
  2.03098E+01  2.01347E+01  2.00529E+01  2.78430E-01 -1.26200E+00  7.12541E-04  1.14185E+00 -4.81892E-04  4.66030E-04  6.68552E-05  2.22099E-03 -4.37288E+00  1.50340E-04  2.41616E-05  2.81433E-05 -1.51420E-06  1.50000E+01
  2.03689E+01  2.01942E+01  2.00981E+01  3.06007E-01 -1.28131E+00 -4.92069E-05  1.17300E+00 -3.82721E-04  3.65816E-04  8.83450E-05  2.18300E-03 -3.46536E+00  1.06034E-05  1.97203E-05  2.38508E-05 -2.43345E-06  1.50000E+01
  2.03666E+01  2.01973E+01  2.00726E+01  3.06388E-01 -1.27784E+00  3.04718E-05  1.18382E+00 -4.01489E-04  3.85227E-04  6.79859E-05  2.36635E-03 -3.58209E+00  1.86168E-04  2.02895E-05  2.41084E-05 -2.12671E-06  1.50000E+01
  2.03715E+01  2.01897E+01  2.01233E+01  3.05316E-01 -1.28563E+00 -1.46522E-04  1.19522E+00 -3.93782E-04  3.73959E-04  1.14751E-04  2.19149E-03 -3.57350E+00 -1.24452E-04  2.08738E-05  2.57537E-05 -2.72584E-06  1.50000E+01
  2.03523E+01  2.01828E+01  2.00610E+01  3.00817E-01 -1.27458E+00  1.51442E-04  1.18937E+00 -4.13444E-04  3.96038E-04  5.97526E-05  2.24662E-03 -3.65776E+00 -1.31716E-04  2.05724E-05  2.43088E-05 -1.83776E-06  1.50000E+01
  2.03646E+01  2.01992E+01  2.00463E+01  3.06524E-01 -1.27527E+00  4.21166E-06  1.22030E+00 -4.24076E-04  4.07889E-04  4.58452E-05  2.55466E-03 -3.76926E+00 -2.15499E-05  2.11490E-05  2.47657E-05 -1.63588E-06  1.50000E+01
  2.03080E+01  2.01360E+01  2.00241E+01  2.78745E-01 -1.26025E+00  4.11198E-04  1.13583E+00 -4.65965E-04  4.50970E-04  2.96354E-05  2.24858E-03 -4.19994E+00  1.18686E-04  2.27789E-05  2.62385E-05 -7.22839E-07  1.50000E+01
  2.03360E+01  2.01684E+01  2.00218E+01  2.94239E-01 -1.26900E+00  1.99092E-04  1.17904E+00 -4.63972E-04  4.45890E-04  2.49900E-05  2.24089E-03 -4.02755E+00  7.29739E-05  2.20989E-05  2.55849E-05 -8.03402E-07  1.50000E+01
  2.03216E+01  2.01524E+01  2.00089E+01  2.86848E-01 -1.26471E+00  1.92225E-04  1.16082E+00 -4.66056E-04  4.49337E-04  1.08631E-05  2.26956E-03 -4.10604E+00  1.13982E-04  2.22774E-05  2.56742E-05 -3.19901E-07  1.50000E+01
  2.03068E+01  2.01005E+01  2.01530E+01  2.62534E-01 -1.27040E+00  1.47512E-03  1.13004E+00 -4.48894E-04  4.27982E-04  1.80661E-04  2.16946E-03 -4.21470E+00  6.34572E-05  2.54904E-05  3.18366E-05 -2.90807E-06  1.50000E+01
  2.03233E+01  2.01132E+01  2.01679E+01  2.70690E-01 -1.27988E+00  1.26160E-03  1.15187E+00 -4.40272E-04  4.16304E-04  1.89430E-04  2.18560E-03 -4.15784E+00  3.92758E-05  2.53050E-05  3.20855E-05 -2.90652E-06  1.50000E+01
  2.06281E+01  2.03760E+01  1.96775E+01  1.32828E-01 -1.14959E+00 -1.12596E-01  8.48648E-01 -1.94759E-04  3.15116E-04 -1.17790E-04  1.15496E-02 -3.64070E+00  2.46260E-03  3.01991E-05  3.14062E-05  1.49138E-05  1.50000E+01
  2.06096E+01  2.03673E+01  1.96914E+01  1.61689E-01 -1.16981E+00 -8.97939E-02  1.03073E+00 -2.36744E-04  3.46094E-04 -1.37501E-04  1.42695E-02 -3.70096E+00  4.54599E-03  2.95121E-05  3.20044E-05  1.36319E-05  1.50000E+01
  2.06226E+01  2.03837E+01  1.97045E+01  9.67124E-02 -1.08344E+00 -1.18654E-01  8.29346E-01 -1.92284E-04  3.32280E-04 -1.06250E-04  9.30282E-03 -3.43047E+00  2.86280E-04  3.15500E-05  3.00246E-05  1.53464E-05  1.50000E+01
  2.06041E+01  2.03751E+01  1.97183E+01  1.30744E-01 -1.11343E+00 -9.43673E-02  1.00260E+00 -2.35234E-04  3.66371E-04 -1.23390E-04  1.31053E-02 -3.52329E+00  2.96346E-03  3.06438E-05  3.09028E-05  1.45964E-05  1.50000E+01
  2.06178E+01  2.03905E+01  1.97318E+01  5.94191E-02 -1.01427E+00 -1.22403E-01  9.78826E-01 -1.97801E-04  3.63562E-04 -9.93558E-05  5.90096E-03 -3.21021E+00 -2.16625E-03  3.28397E-05  2.81072E-05  1.47126E-05  1.50000E+01
  2.06856E+01  2.03996E+01  1.96373E+01  5.90578E-02 -1.10515E+00 -1.84373E-01  4.43430E-01 -1.05200E-04  2.44194E-04 -7.67906E-05  3.77018E-03 -3.50382E+00 -4.77019E-03  3.51841E-05  3.09585E-05  1.68401E-05  1.50000E+01
  2.06661E+01  2.03922E+01  1.96505E+01  8.03693E-02 -1.11565E+00 -1.60726E-01  6.35912E-01 -1.29701E-04  2.64564E-04 -8.78638E-05  5.68219E-03 -3.53659E+00 -2.63774E-03  3.34292E-05  3.08758E-05  1.60505E-05  1.50000E+01
  2.06801E+01  2.04070E+01  1.96641E+01  9.02688E-03 -1.01009E+00 -1.95210E-01  5.44980E-01 -1.00298E-04  2.52953E-04 -6.73142E-05 -2.55456E-04 -3.19988E+00 -7.58959E-03  3.64136E-05  2.84447E-05  1.56923E-05  1.50000E+01
  2.03747E+01  2.01840E+01  2.01487E+01  3.04367E-01 -1.29095E+00 -2.26138E-04  1.18294E+00 -4.12843E-04  3.88936E-04  1.44690E-04  2.49867E-03 -3.76313E+00  1.64408E-05  2.21228E-05  2.77841E-05 -2.76050E-06  1.50000E+01
  2.06753E+01  2.04134E+01  1.96913E+01 -4.10549E-02 -9.09244E-01 -2.01687E-01  5.35921E-01 -6.94619E-05  2.14928E-04 -4.29424E-05 -4.85357E-03 -2.87594E+00 -1.01071E-02  3.70902E-05  2.54410E-05  1.41826E-05  1.50000E+01
  2.06950E+01  2.04203E+01  1.96781E+01 -6.61879E-02 -8.87696E-01 -2.27271E-01  2.49788E-01 -4.27600E-05  1.78236E-04 -3.29064E-05 -5.45235E-03 -2.80719E+00 -1.08394E-02  3.98719E-05  2.57378E-05  1.29085E-05  1.50000E+01
  2.03774E+01  2.02155E+01  2.00320E+01  3.11233E-01 -1.27519E+00 -1.14832E-04  1.22297E+00 -4.11358E-04  3.99680E-04  3.00386E-05  2.87176E-03 -3.81354E+00 -3.21968E-05  2.16683E-05  2.51620E-05 -1.32720E-06  1.50000E+01
  2.03634E+01  2.02001E+01  2.00193E+01  3.06514E-01 -1.27384E+00 -3.44941E-05  1.23329E+00 -4.29497E-04  4.14410E-04  1.91396E-05  2.59139E-03 -3.86649E+00 -3.87783E-05  2.13827E-05  2.47848E-05 -8.52961E-07  1.50000E+01
  2.03354E+01  2.01333E+01  2.01563E+01  2.81192E-01 -1.28248E+00  9.76394E-04  1.16248E+00 -4.45971E-04  4.21638E-04  1.74810E-04  2.10643E-03 -4.14348E+00  4.42792E-05  2.48581E-05  3.13118E-05 -2.94867E-06  1.50000E+01
  2.03398E+01  2.01255E+01  2.01827E+01  2.78443E-01 -1.28902E+00  9.35316E-04  1.15128E+00 -4.30572E-04  4.03143E-04  1.96849E-04  2.28494E-03 -4.07747E+00  7.59317E-05  2.46951E-05  3.17519E-05 -2.80488E-06  1.50000E+01
  2.03514E+01  2.01455E+01  2.01714E+01  2.88344E-01 -1.29053E+00  6.06972E-04  1.16830E+00 -4.28571E-04  4.01426E-04  1.80115E-04  2.28164E-03 -3.99152E+00  1.43092E-04  2.38682E-05  3.04740E-05 -2.80313E-06  1.50000E+01
  2.03074E+01  2.01361E+01  1.99957E+01  2.78730E-01 -1.25974E+00  6.72231E-05  1.13620E+00 -4.57254E-04  4.42350E-04 -4.71027E-06  2.29884E-03 -4.10762E+00  6.53836E-05  2.20497E-05  2.53189E-05  9.42489E-08  1.50000E+01
  2.03354E+01  2.01683E+01  1.99938E+01  2.94125E-01 -1.26861E+00 -4.93616E-06  1.18109E+00 -4.65299E-04  4.47160E-04 -6.78384E-06  2.36496E-03 -4.01993E+00  4.54787E-05  2.18669E-05  2.52393E-05  2.28347E-07  1.50000E+01
  2.03215E+01  2.01518E+01  1.99808E+01  2.86625E-01 -1.26484E+00 -1.08032E-04  1.16119E+00 -4.59349E-04  4.42776E-04 -2.20565E-05  2.33229E-03 -4.05254E+00  4.13112E-05  2.19656E-05  2.53345E-05  5.33628E-07  1.50000E+01
  2.06289E+01  2.04093E+01  1.97735E+01 -5.95293E-02 -8.08043E-01 -1.47081E-01  1.39162E+00 -1.54257E-04  3.75100E-04 -6.65886E-05 -9.23352E-03 -2.54681E+00 -1.00799E-02  3.35390E-05  2.09445E-05  1.13782E-05  1.50000E+01
  2.06482E+01  2.04164E+01  1.97599E+01 -9.97795E-02 -7.49316E-01 -1.73383E-01  8.23342E-01 -1.15844E-04  3.32862E-04 -5.21358E-05 -1.25343E-02 -2.35811E+00 -1.21750E-02  3.48842E-05  1.95668E-05  1.00649E-05  1.50000E+01
  2.06325E+01  2.04044E+01  1.97457E+01 -1.94188E-02 -8.91757E-01 -1.49970E-01  9.97026E-01 -1.51297E-04  3.41335E-04 -7.27923E-05 -3.88088E-03 -2.81777E+00 -8.05394E-03  3.38647E-05  2.37514E-05  1.28219E-05  1.50000E+01
  2.03833E+01  2.02075E+01  2.01111E+01  3.10839E-01 -1.28443E+00 -4.26416E-04  1.19151E+00 -4.01243E-04  3.84321E-04  1.02899E-04  2.75496E-03 -3.68237E+00 -9.75029E-05  2.15037E-05  2.61934E-05 -2.79785E-06  1.50000E+01
  2.01147E+01  1.98543E+01  2.01911E+01  8.07378E-02 -1.12937E+00 -1.36641E-04  8.80006E-01 -1.63845E-04  2.29556E-04  1.32160E-04  1.79145E-03 -3.54630E+00 -3.29192E-04  4.24985E-05  4.93266E-05 -2.07972E-06  1.50000E+01
  2.01030E+01  1.98330E+01  2.02018E+01  6.30358E-02 -1.11709E+00 -1.58941E-04  1.20091E+00 -8.43747E-05  1.78776E-04  9.11376E-05  1.42443E-03 -3.50874E+00 -3.99959E-04  5.43517E-05  6.17830E-05 -1.46867E-06  1.50000E+01
  2.01213E+01  1.98432E+01  2.02146E+01  7.25655E-02 -1.13441E+00 -9.31245E-05  8.23178E-01 -1.15240E-04  2.14399E-04  1.21839E-04  1.28076E-03 -3.57246E+00 -3.46763E-04  5.96608E-05  6.94612E-05 -1.66694E-06  1.50000E+01
  2.06875E+01  2.04297E+01  1.97333E+01 -1.65663E-01 -6.58062E-01 -2.24675E-01  4.15196E-01 -1.62043E-06  9.88053E-05 -7.99980E-06 -1.26864E-02 -2.06700E+00 -1.20974E-02  3.60603E-05  1.81146E-05  8.63184E-06  1.50000E+01
  2.07073E+01  2.04362E+01  1.97201E+01 -1.92874E-01 -6.28037E-01 -2.50560E-01 -2.44445E-01  3.12855E-05 -2.00284E-05  8.90285E-06 -1.08108E-01 -8.12487E-01 -5.40126E-02  1.83355E-05  9.21330E-06  4.10869E-06  1.50000E+01
  2.06909E+01  2.04255E+01  1.97056E+01 -1.17858E-01 -7.73586E-01 -2.29034E-01  1.92475E-01  6.18619E-06  8.41348E-05 -5.74939E-06 -9.50957E-03 -2.43957E+00 -1.19996E-02  3.87318E-05  2.20196E-05  1.06975E-05  1.50000E+01
  2.06366E+01  2.03986E+01  1.97181E+01  2.22822E-02 -9.74663E-01 -1.48814E-01  7.52018E-01 -1.47211E-04  3.10644E-04 -7.76816E-05  1.19076E-03 -3.08460E+00 -5.44437E-03  3.32685E-05  2.63876E-05  1.45545E-05  1.50000E+01
  2.06517E+01  2.04117E+01  1.97321E+01 -5.67850E-02 -8.44641E-01 -1.76765E-01  6.27573E-01 -1.04405E-04  2.79357E-04 -5.25482E-05 -7.60881E-03 -2.66670E+00 -1.06053E-02  3.42824E-05  2.21165E-05  1.24896E-05  1.50000E+01
  2.03077E+01  2.01349E+01  1.99677E+01  2.78321E-01 -1.26037E+00 -2.87578E-04  1.13976E+00 -4.50204E-04  4.35736E-04 -3.76161E-05  2.28703E-03 -4.05335E+00  1.83555E-06  2.20976E-05  2.55034E-05  8.40828E-07  1.50000E+01
  2.02944E+01  2.01189E+01  2.00391E+01  2.69776E-01 -1.25522E+00  6.22182E-04  1.12775E+00 -4.63932E-04  4.51383E-04  4.88540E-05  2.21587E-03 -4.25072E+00  8.74628E-05  2.34502E-05  2.70179E-05 -1.01266E-06  1.50000E+01
  2.02933E+01  2.01198E+01  2.00105E+01  2.70087E-01 -1.25413E+00  2.60851E-04  1.12452E+00 -4.53686E-04  4.41548E-04  1.32263E-05  2.26245E-03 -4.14862E+00  6.27779E-05  2.25621E-05  2.58324E-05 -3.02622E-07  1.50000E+01
  2.06723E+01  2.03837E+01  1.96241E+01  1.24258E-01 -1.19558E+00 -1.48817E-01  5.55498E-01 -1.30262E-04  2.50865E-04 -9.85354E-05  8.21136E-03 -3.79020E+00 -1.61810E-04  3.26850E-05  3.27448E-05  1.51745E-05  1.50000E+01
  2.05993E+01  2.03820E+01  1.97457E+01  9.85772E-02 -1.05514E+00 -9.71013E-02  1.07161E+00 -2.37919E-04  3.91741E-04 -1.13024E-04  1.09155E-02 -3.33746E+00  1.06184E-03  3.14770E-05  2.91891E-05  1.46493E-05  1.50000E+01
  2.06136E+01  2.03965E+01  1.97594E+01  2.19818E-02 -9.43208E-01 -1.23228E-01  1.25062E+00 -1.98607E-04  3.90329E-04 -9.04755E-05  1.56101E-03 -2.98195E+00 -4.58781E-03  3.33617E-05  2.57235E-05  1.40191E-05  1.50000E+01
  2.02809E+01  2.01014E+01  2.00537E+01  2.59974E-01 -1.24960E+00  8.23261E-04  1.14162E+00 -4.58806E-04  4.48160E-04  6.78606E-05  2.19930E-03 -4.22584E+00  6.13638E-05  2.37430E-05  2.73897E-05 -1.17949E-06  1.50000E+01
  2.02656E+01  2.00860E+01  2.00396E+01  2.50605E-01 -1.24138E+00  6.46703E-04  1.12789E+00 -4.43914E-04  4.36671E-04  4.98764E-05  2.23159E-03 -4.11806E+00  3.93273E-05  2.31462E-05  2.64114E-05 -8.22121E-07  1.50000E+01
  2.02675E+01  2.00834E+01  2.00678E+01  2.49422E-01 -1.24343E+00  1.00969E-03  1.12058E+00 -4.48621E-04  4.40480E-04  8.54520E-05  2.21444E-03 -4.15811E+00  6.16911E-05  2.40230E-05  2.78099E-05 -1.62482E-06  1.50000E+01
  2.03808E+01  2.02113E+01  2.00851E+01  3.11121E-01 -1.28032E+00 -2.53114E-04  1.19143E+00 -4.06595E-04  3.91563E-04  7.94476E-05  2.78906E-03 -3.67560E+00 -2.44771E-06  2.12645E-05  2.54421E-05 -2.65383E-06  1.50000E+01
  2.03788E+01  2.02139E+01  2.00588E+01  3.11236E-01 -1.27722E+00 -1.43016E-04  1.21137E+00 -4.13395E-04  3.99814E-04  5.56089E-05  2.84454E-03 -3.74233E+00  6.31395E-05  2.15209E-05  2.53151E-05 -2.18894E-06  1.50000E+01
  2.03905E+01  2.02315E+01  2.00179E+01  3.14700E-01 -1.27405E+00 -1.59454E-04  1.16933E+00 -3.97196E-04  3.90373E-04  1.54521E-05  3.24258E-03 -3.83121E+00 -4.72877E-05  2.20769E-05  2.54160E-05 -9.14831E-07  1.50000E+01
  2.03767E+01  2.02160E+01  2.00049E+01  3.11158E-01 -1.27435E+00 -1.05564E-04  1.20781E+00 -4.12618E-04  4.01719E-04  4.27619E-06  2.84375E-03 -3.86020E+00 -6.27322E-05  2.15651E-05  2.48792E-05 -1.95903E-07  1.50000E+01
  2.06559E+01  2.04062E+01  1.97046E+01 -1.14748E-02 -9.38858E-01 -1.75445E-01  7.92094E-01 -1.03248E-04  2.58407E-04 -5.77167E-05 -2.53494E-03 -2.97081E+00 -8.21951E-03  3.46552E-05  2.54909E-05  1.42877E-05  1.50000E+01
  2.06606E+01  2.03996E+01  1.96773E+01  3.47066E-02 -1.02973E+00 -1.69876E-01  7.82159E-01 -1.09813E-04  2.51179E-04 -6.76810E-05  1.99065E-03 -3.26279E+00 -5.45963E-03  3.47021E-05  2.87411E-05  1.57661E-05  1.50000E+01
  2.05914E+01  2.03582E+01  1.97054E+01  1.90490E-01 -1.19017E+00 -6.89276E-02  1.03903E+00 -2.59269E-04  3.52078E-04 -1.43549E-04  1.62020E-02 -3.76128E+00  5.96140E-03  2.84520E-05  3.24443E-05  1.29201E-05  1.50000E+01
  2.02903E+01  2.00875E+01  2.01381E+01  2.53965E-01 -1.26061E+00  1.57738E-03  1.12421E+00 -4.42897E-04  4.27040E-04  1.65622E-04  2.15783E-03 -4.20513E+00  1.06617E-04  2.53729E-05  3.10977E-05 -2.67944E-06  1.50000E+01
  2.02781E+01  2.00674E+01  2.01506E+01  2.41843E-01 -1.25554E+00  1.71575E-03  1.09633E+00 -4.20098E-04  4.07558E-04  1.75593E-04  2.16714E-03 -4.13019E+00  1.04963E-04  2.55596E-05  3.14024E-05 -2.44486E-06  1.50000E+01
  2.02948E+01  2.00802E+01  2.01651E+01  2.50686E-01 -1.26622E+00  1.67126E-03  1.11002E+00 -4.28760E-04  4.10436E-04  1.90794E-04  2.20394E-03 -4.14987E+00  9.27363E-05  2.55047E-05  3.20487E-05 -2.86768E-06  1.50000E+01
  2.06713E+01  2.04187E+01  1.97188E+01 -8.95587E-02 -8.04596E-01 -2.03122E-01  4.64495E-01 -6.23533E-05  2.17015E-04 -3.43624E-05 -9.41153E-03 -2.53831E+00 -1.19024E-02  3.65819E-05  2.21333E-05  1.27969E-05  1.50000E+01
  2.06156E+01  2.03588E+01  1.96648E+01  1.90770E-01 -1.22370E+00 -8.39253E-02  8.51859E-01 -2.41510E-04  3.33027E-04 -1.53996E-04  1.44429E-02 -3.87104E+00  5.65825E-03  2.87530E-05  3.29190E-05  1.20905E-05  1.50000E+01
  2.05975E+01  2.03496E+01  1.96788E+01  2.14610E-01 -1.23601E+00 -6.46864E-02  1.03300E+00 -2.68107E-04  3.44639E-04 -1.63346E-04  1.56373E-02 -3.90508E+00  6.60764E-03  2.83227E-05  3.33631E-05  1.07785E-05  1.50000E+01
  2.03561E+01  2.01376E+01  2.01972E+01  2.85844E-01 -1.29777E+00  4.54951E-04  1.15738E+00 -4.25878E-04  3.94069E-04  2.05171E-04  2.47834E-03 -4.03658E+00  9.50260E-05  2.42139E-05  3.14969E-05 -2.60757E-06  1.50000E+01
  2.03674E+01  2.01577E+01  2.01858E+01  2.95145E-01 -1.29809E+00  4.97369E-05  1.17065E+00 -4.24007E-04  3.93406E-04  1.88810E-04  2.57460E-03 -3.96151E+00  9.98189E-05  2.35645E-05  3.03546E-05 -2.55641E-06  1.50000E+01
  2.03449E+01  2.01169E+01  2.02086E+01  2.75317E-01 -1.29661E+00  8.11513E-04  1.14121E+00 -4.22268E-04  3.90632E-04  2.19364E-04  2.38472E-03 -4.09325E+00  7.14370E-05  2.46907E-05  3.23325E-05 -2.49310E-06  1.50000E+01
  2.03357E+01  2.01671E+01  1.99661E+01  2.93786E-01 -1.26938E+00 -2.32235E-04  1.17748E+00 -4.59591E-04  4.42156E-04 -3.83493E-05  2.37044E-03 -4.00551E+00 -1.54364E-05  2.21253E-05  2.56782E-05  1.10137E-06  1.50000E+01
  2.06469E+01  2.03843E+01  1.96639E+01  1.05290E-01 -1.13100E+00 -1.36534E-01  8.77483E-01 -1.44849E-04  2.68117E-04 -9.26071E-05  8.44939E-03 -3.58453E+00 -9.08791E-05  3.16601E-05  3.08920E-05  1.51568E-05  1.50000E+01
  2.06531E+01  2.03758E+01  1.96374E+01  1.44380E-01 -1.20229E+00 -1.26805E-01  6.65969E-01 -1.60321E-04  2.73159E-04 -1.13341E-04  1.02682E-02 -3.80953E+00  2.00225E-03  3.14222E-05  3.28207E-05  1.39997E-05  1.50000E+01
  2.06342E+01  2.03675E+01  1.96510E+01  1.66942E-01 -1.21208E+00 -1.04890E-01  8.19369E-01 -1.90828E-04  2.93108E-04 -1.28065E-04  1.24858E-02 -3.83835E+00  4.02759E-03  3.00429E-05  3.30321E-05  1.33276E-05  1.50000E+01
  2.05797E+01  2.03401E+01  1.96930E+01  2.37335E-01 -1.24809E+00 -4.77398E-02  1.12462E+00 -2.84262E-04  3.44541E-04 -1.65708E-04  1.60137E-02 -3.93886E+00  6.93787E-03  2.75506E-05  3.36740E-05  1.01314E-05  1.50000E+01
  2.03981E+01  2.02207E+01  2.01246E+01  3.14910E-01 -1.28684E+00 -8.79980E-04  1.17913E+00 -4.06989E-04  3.91004E-04  1.14918E-04  3.30745E-03 -3.78896E+00 -2.24094E-04  2.22942E-05  2.73297E-05 -3.02869E-06  1.50000E+01
  2.03863E+01  2.02025E+01  2.01369E+01  3.10373E-01 -1.28956E+00 -6.22075E-04  1.19225E+00 -4.10828E-04  3.90024E-04  1.30161E-04  2.81695E-03 -3.76066E+00 -1.57439E-04  2.21271E-05  2.74792E-05 -2.88060E-06  1.50000E+01
  2.02864E+01  2.00935E+01  2.01105E+01  2.56629E-01 -1.25596E+00  1.39970E-03  1.11965E+00 -4.56633E-04  4.42692E-04  1.37074E-04  2.16031E-03 -4.26823E+00  1.02373E-04  2.50238E-05  3.00054E-05 -2.46577E-06  1.50000E+01
  2.02702E+01  2.00795E+01  2.00958E+01  2.47570E-01 -1.24650E+00  1.31992E-03  1.11505E+00 -4.42372E-04  4.33254E-04  1.18495E-04  2.18975E-03 -4.17269E+00  8.51479E-05  2.45556E-05  2.89288E-05 -2.06118E-06  1.50000E+01
  2.01097E+01  1.98212E+01  2.02248E+01  5.43000E-02 -1.12188E+00  0.00000E+00  6.25887E-01  1.80774E-05  4.67076E-05  9.64252E-06  1.01003E+01  4.65566E+01 -4.02248E+01  3.30137E-05  3.70436E-05  9.60291E-08  1.50000E+01
  2.07148E+01  2.04272E+01  1.96651E+01 -8.71222E-02 -8.75143E-01 -2.52287E-01  3.34076E-01 -2.15935E-05  9.50219E-05 -1.70799E-05 -9.83298E-02 -1.25045E+00 -6.42843E-02  2.21139E-05  1.44845E-05  7.50813E-06  1.50000E+01
  2.06998E+01  2.04141E+01  1.96510E+01 -1.23160E-02 -9.97497E-01 -2.19652E-01  2.83543E-01 -6.48881E-05  2.12306E-04 -4.89462E-05 -1.08585E-03 -3.15996E+00 -8.78531E-03  4.06681E-05  3.03125E-05  1.68641E-05  1.50000E+01
  2.06041E+01  2.03403E+01  1.96526E+01  2.36814E-01 -1.28022E+00 -5.98181E-02  9.40492E-01 -2.75698E-04  3.36211E-04 -1.84319E-04  1.45284E-02 -4.04468E+00  6.85946E-03  2.76645E-05  3.33075E-05  8.34489E-06  1.50000E+01
  2.05862E+01  2.03309E+01  1.96667E+01  2.55238E-01 -1.28595E+00 -4.43462E-02  9.89941E-01 -2.95701E-04  3.41054E-04 -1.89414E-04  1.46122E-02 -4.05788E+00  6.95908E-03  2.74088E-05  3.37022E-05  7.31458E-06  1.50000E+01
  2.02932E+01  2.01194E+01  1.99823E+01  2.69915E-01 -1.25416E+00 -1.25967E-04  1.12532E+00 -4.46479E-04  4.34359E-04 -2.06575E-05  2.27919E-03 -4.07757E+00  1.54824E-05  2.21729E-05  2.54012E-05  4.59578E-07  1.50000E+01
  2.03900E+01  2.01966E+01  2.01627E+01  3.09692E-01 -1.29579E+00 -8.41606E-04  1.17545E+00 -4.19417E-04  3.94021E-04  1.57503E-04  2.95753E-03 -3.85250E+00 -1.21358E-04  2.27194E-05  2.88032E-05 -2.93194E-06  1.50000E+01
  2.03115E+01  2.00927E+01  2.01797E+01  2.59216E-01 -1.27664E+00  1.50917E-03  1.14093E+00 -4.30073E-04  4.07002E-04  2.02565E-04  2.23780E-03 -4.14111E+00  6.80901E-05  2.54987E-05  3.25792E-05 -2.89483E-06  1.50000E+01
  2.03283E+01  2.01049E+01  2.01942E+01  2.67421E-01 -1.28679E+00  1.22921E-03  1.12927E+00 -4.24466E-04  3.97455E-04  2.10512E-04  2.27393E-03 -4.11470E+00  6.95019E-05  2.51587E-05  3.25949E-05 -2.74397E-06  1.50000E+01
  2.01264E+01  1.98752E+01  2.01800E+01  9.79337E-02 -1.14102E+00 -1.03929E-05  7.86889E-01 -1.90101E-04  2.41684E-04  1.34008E-04  1.86516E-03 -3.59174E+00 -2.55819E-04  3.57184E-05  4.08972E-05 -1.00590E-06  1.50000E+01
  2.01087E+01  1.98640E+01  2.01670E+01  8.79275E-02 -1.12472E+00 -1.22387E-04  8.06740E-01 -1.81804E-04  2.36793E-04  1.20839E-04  2.14258E-03 -3.51834E+00 -2.85048E-04  3.71937E-05  4.15917E-05 -5.29825E-07  1.50000E+01
  2.06600E+01  2.03665E+01  1.96115E+01  1.80808E-01 -1.26840E+00 -1.15632E-01  6.89731E-01 -1.65864E-04  2.65893E-04 -1.30079E-04  1.09375E-02 -4.01796E+00  3.44559E-03  3.06210E-05  3.34210E-05  1.18759E-05  1.50000E+01
  2.02506E+01  2.00704E+01  2.00258E+01  2.40785E-01 -1.23279E+00  4.34663E-04  1.13010E+00 -4.33100E-04  4.28896E-04  3.26193E-05  2.23222E-03 -4.03756E+00  1.62008E-05  2.27318E-05  2.57057E-05 -5.08369E-07  1.50000E+01
  2.02520E+01  2.00685E+01  2.00537E+01  2.39828E-01 -1.23428E+00  8.17927E-04  1.11428E+00 -4.37705E-04  4.33185E-04  6.80117E-05  2.24203E-03 -4.06740E+00  4.01233E-05  2.35551E-05  2.68918E-05 -1.10922E-06  1.50000E+01
  2.03953E+01  2.02250E+01  2.00983E+01  3.14962E-01 -1.28197E+00 -6.11667E-04  1.17842E+00 -4.05722E-04  3.92697E-04  8.98959E-05  3.29657E-03 -3.75962E+00 -1.44574E-04  2.20290E-05  2.65181E-05 -3.03125E-06  1.50000E+01
  2.03930E+01  2.02283E+01  2.00718E+01  3.14916E-01 -1.27819E+00 -3.94785E-04  1.20598E+00 -4.04696E-04  3.94239E-04  6.51909E-05  3.29227E-03 -3.76548E+00 -6.72489E-05  2.21027E-05  2.61207E-05 -2.69565E-06  1.50000E+01
  2.02830E+01  2.00596E+01  2.01771E+01  2.37987E-01 -1.26148E+00  1.78380E-03  1.08675E+00 -4.07387E-04  3.92064E-04  1.98993E-04  2.11005E-03 -4.11234E+00  8.17456E-05  2.56902E-05  3.24446E-05 -2.73072E-06  1.50000E+01
  2.02715E+01  2.00387E+01  2.01891E+01  2.24471E-01 -1.25619E+00  1.80928E-03  1.07101E+00 -3.86737E-04  3.74496E-04  2.06079E-04  2.00319E-03 -4.07438E+00  5.89799E-05  2.61155E-05  3.33031E-05 -2.90003E-06  1.50000E+01
  2.02886E+01  2.00507E+01  2.02031E+01  2.33498E-01 -1.26835E+00  1.77080E-03  1.08951E+00 -3.92155E-04  3.74329E-04  2.17608E-04  2.03462E-03 -4.10513E+00  5.90217E-05  2.61101E-05  3.41145E-05 -3.26275E-06  1.50000E+01
  2.05686E+01  2.03211E+01  1.96810E+01  2.72064E-01 -1.29152E+00 -3.11700E-02  1.11559E+00 -3.11167E-04  3.42867E-04 -1.91341E-04  1.41129E-02 -4.07145E+00  6.64313E-03  2.68677E-05  3.39796E-05  6.91083E-06  1.50000E+01
  2.02794E+01  2.01031E+01  2.00252E+01  2.60703E-01 -1.24800E+00  4.56430E-04  1.11326E+00 -4.49437E-04  4.39863E-04  3.14599E-05  2.24547E-03 -4.15150E+00  4.68338E-05  2.29663E-05  2.62291E-05 -5.84065E-07  1.50000E+01
  2.02788E+01  2.01035E+01  1.99970E+01  2.60850E-01 -1.24749E+00  5.81811E-05  1.11094E+00 -4.42726E-04  4.33299E-04 -3.25701E-06  2.25952E-03 -4.08672E+00  1.71515E-05  2.24445E-05  2.55646E-05  7.39293E-08  1.50000E+01
  2.03914E+01  2.02304E+01  2.00450E+01  3.14812E-01 -1.27553E+00 -2.47991E-04  1.18403E+00 -3.98468E-04  3.90692E-04  3.98481E-05  3.26655E-03 -3.79617E+00 -2.61120E-05  2.21811E-05  2.58054E-05 -2.03350E-06  1.50000E+01
  2.06410E+01  2.03582E+01  1.96249E+01  1.98554E-01 -1.27065E+00 -9.61047E-02  7.92757E-01 -1.98680E-04  2.85877E-04 -1.46342E-04  1.24733E-02 -4.02199E+00  5.01994E-03  2.94679E-05  3.32749E-05  1.05500E-05  1.50000E+01
  2.06224E+01  2.03495E+01  1.96387E+01  2.17584E-01 -1.27488E+00 -7.72578E-02  8.60600E-01 -2.39407E-04  3.14668E-04 -1.67191E-04  1.37461E-02 -4.03232E+00  6.18458E-03  2.82605E-05  3.32663E-05  9.68260E-06  1.50000E+01
  2.02738E+01  2.00741E+01  2.01235E+01  2.45043E-01 -1.25055E+00  1.55981E-03  1.12353E+00 -4.31667E-04  4.20814E-04  1.48551E-04  2.19226E-03 -4.15689E+00  1.04144E-04  2.49391E-05  2.99513E-05 -2.22392E-06  1.50000E+01
  2.02574E+01  2.00604E+01  2.01091E+01  2.35788E-01 -1.24021E+00  1.44363E-03  1.08681E+00 -4.21589E-04  4.15577E-04  1.31973E-04  2.17721E-03 -4.09366E+00  8.34124E-05  2.46103E-05  2.90022E-05 -1.81821E-06  1.50000E+01
  2.04173E+01  2.02624E+01  1.99895E+01  3.16913E-01 -1.26749E+00 -2.69324E-05  1.08659E+00 -3.77282E-04  3.82423E-04 -8.75969E-06  4.75673E-03 -3.85252E+00  3.57259E-05  2.40147E-05  2.72281E-05  6.34617E-07  1.50000E+01
  2.04039E+01  2.02465E+01  1.99762E+01  3.16700E-01 -1.27200E+00  1.67471E-05  1.15129E+00 -3.91641E-04  3.90159E-04 -2.05488E-05  3.84595E-03 -3.87474E+00  1.24273E-05  2.31843E-05  2.65725E-05  1.20387E-06  1.50000E+01
  2.04038E+01  2.02471E+01  2.00037E+01  3.16701E-01 -1.27159E+00 -1.18325E-04  1.12060E+00 -3.87189E-04  3.85804E-04  2.74828E-06  3.84101E-03 -3.84510E+00 -2.62264E-05  2.30302E-05  2.63043E-05 -2.30749E-07  1.50000E+01
  2.06484E+01  2.03481E+01  1.95994E+01  2.27392E-01 -1.32532E+00 -8.67367E-02  7.47446E-01 -2.14054E-04  2.89873E-04 -1.72423E-04  1.17416E-02 -4.19385E+00  5.43701E-03  2.85525E-05  3.28564E-05  7.98421E-06  1.50000E+01
  2.04056E+01  2.02090E+01  2.01768E+01  3.14319E-01 -1.29998E+00 -1.52260E-03  1.18386E+00 -4.19135E-04  3.93223E-04  1.67203E-04  3.40579E-03 -3.90165E+00 -3.15582E-04  2.33065E-05  2.98432E-05 -3.18431E-06  1.50000E+01
  2.04015E+01  2.02154E+01  2.01508E+01  3.14716E-01 -1.29283E+00 -1.18292E-03  1.17745E+00 -4.17614E-04  3.96642E-04  1.42661E-04  3.35045E-03 -3.84176E+00 -2.88725E-04  2.29104E-05  2.86808E-05 -3.12609E-06  1.50000E+01
  2.02543E+01  2.00651E+01  2.00815E+01  2.38162E-01 -1.23676E+00  1.16078E-03  1.09478E+00 -4.31712E-04  4.27316E-04  1.01160E-04  2.20772E-03 -4.08764E+00  6.46835E-05  2.44098E-05  2.83051E-05 -1.71729E-06  1.50000E+01
  2.03058E+01  2.00625E+01  2.02172E+01  2.42327E-01 -1.28031E+00  1.61982E-03  1.07367E+00 -3.98140E-04  3.74788E-04  2.29808E-04  2.08567E-03 -4.12533E+00  5.30555E-05  2.58926E-05  3.45507E-05 -3.42044E-06  1.50000E+01
  2.03230E+01  2.00741E+01  2.02312E+01  2.50950E-01 -1.29205E+00  1.34523E-03  1.09537E+00 -4.00704E-04  3.72442E-04  2.40040E-04  2.15093E-03 -4.13841E+00  4.47064E-05  2.57126E-05  3.44972E-05 -2.83998E-06  1.50000E+01
  2.03169E+01  2.00839E+01  2.02057E+01  2.55359E-01 -1.28387E+00  1.46452E-03  1.10726E+00 -4.15684E-04  3.89696E-04  2.22993E-04  2.20223E-03 -4.12885E+00  6.35906E-05  2.55505E-05  3.35498E-05 -3.04321E-06  1.50000E+01
  2.00912E+01  1.98524E+01  2.01539E+01  7.76293E-02 -1.10837E+00 -1.74941E-04  8.02336E-01 -1.73547E-04  2.35549E-04  1.05824E-04  2.46221E-03 -3.43414E+00 -2.92864E-04  3.82805E-05  4.29599E-05 -1.62415E-06  1.50000E+01
  2.00790E+01  1.98325E+01  2.01652E+01  6.09092E-02 -1.09572E+00 -2.35922E-04  6.92656E-01 -1.17391E-04  1.98382E-04  8.71356E-05  2.25446E-03 -3.36965E+00 -3.82356E-04  4.55186E-05  5.11935E-05 -3.11352E-06  1.50000E+01