 TITLE="3D TRIANGULAR SURFACE DATA"
VARIABLES="X","Y","Z","U","V","W","P", "Fex", "Fey", "Fez","Finx","Finy","Finz","WSSx","WSSy","WSSz","AMForce"
 ZONE T="unstruc"N=        1757 E=        3355 F=FEPOINT  ET=TRIANGLE
  2.04304E+01  1.98153E+01  2.00976E+01  3.15771E-01 -8.33347E-01 -8.88804E-03  3.65048E-01 -1.19930E-04  2.17847E-04  5.06851E-05  4.55472E-03 -3.44873E+00 -9.64541E-04  1.31842E-05  7.40575E-06  3.96655E-06  1.50000E+01
  2.04492E+01  1.98272E+01  2.00979E+01  3.29689E-01 -8.62277E-01 -8.19959E-03  3.51743E-01 -6.24909E-05  1.09860E-04  2.52508E-05  3.06648E-03 -1.67361E+00  6.80965E-04  6.31617E-06  3.67951E-06  1.74632E-06  1.50000E+01
  2.04443E+01  1.98282E+01  2.00767E+01  3.31439E-01 -8.57184E-01 -6.46477E-03  3.66416E-01 -9.44411E-05  1.65649E-04  2.97254E-05  1.21172E-03 -2.45873E+00  1.04942E-03  8.79434E-06  5.26050E-06  2.12774E-06  1.50000E+01
  2.04292E+01  1.98065E+01  2.01287E+01  3.03522E-01 -8.26940E-01 -1.13914E-02  3.65791E-01 -9.45232E-05  1.75146E-04  5.32422E-05  1.99149E-03 -2.88609E+00 -4.28737E-04  1.23136E-05  6.53009E-06  4.24297E-06  1.50000E+01
  2.04468E+01  1.98204E+01  2.01189E+01  3.20507E-01 -8.55826E-01 -1.02979E-02  3.94636E-01 -8.58025E-05  1.53115E-04  4.32262E-05  1.73895E-03 -2.43791E+00 -1.28832E-03  9.85726E-06  5.50425E-06  3.16754E-06  1.50000E+01
  2.04628E+01  1.98331E+01  2.01101E+01  3.35826E-01 -8.81503E-01 -8.93814E-03  4.40048E-01 -8.14078E-05  1.41308E-04  3.64100E-05  1.94717E-03 -2.16060E+00  2.06382E-04  8.46916E-06  4.96100E-06  2.36612E-06  1.50000E+01
  2.04614E+01  1.98375E+01  2.00862E+01  3.41905E-01 -8.82119E-01 -7.11719E-03  3.89175E-01 -8.38143E-05  1.44611E-04  2.87704E-05  2.39435E-03 -2.17564E+00 -5.87137E-04  7.75598E-06  4.69577E-06  1.86284E-06  1.50000E+01
  2.04413E+01  1.98301E+01  2.00497E+01  3.34526E-01 -8.54542E-01 -4.36633E-03  3.91467E-01 -1.03012E-04  1.80788E-04  2.12824E-05  2.18611E-03 -2.66945E+00 -9.63026E-05  8.73484E-06  5.34835E-06  1.58543E-06  1.50000E+01
  2.04254E+01  1.98180E+01  2.00661E+01  3.20201E-01 -8.28973E-01 -6.30721E-03  3.63894E-01 -1.02107E-04  1.85655E-04  2.99870E-05  2.80444E-03 -2.91992E+00 -9.94259E-04  1.03438E-05  6.03866E-06  2.52139E-06  1.50000E+01
  2.04230E+01  1.98200E+01  2.00373E+01  3.23256E-01 -8.27206E-01 -3.66970E-03  3.59642E-01 -9.97265E-05  1.79988E-04  1.63221E-05  2.62046E-03 -2.73888E+00 -4.14904E-04  8.95546E-06  5.42672E-06  1.28812E-06  1.50000E+01
  2.04470E+01  1.98127E+01  2.01451E+01  3.09732E-01 -8.52027E-01 -1.21978E-02  4.29815E-01 -9.08393E-05  1.63573E-04  5.58254E-05  1.52045E-03 -2.61302E+00 -8.93579E-04  1.14982E-05  6.16431E-06  3.86548E-06  1.50000E+01
  2.04633E+01  1.98267E+01  2.01345E+01  3.26857E-01 -8.79115E-01 -1.09301E-02  4.35720E-01 -8.91911E-05  1.56478E-04  4.90972E-05  1.31497E-03 -2.48500E+00 -5.99821E-04  1.06223E-05  6.00020E-06  3.27195E-06  1.50000E+01
  2.03905E+01  1.97909E+01  2.00967E+01  2.87488E-01 -7.70955E-01 -9.76655E-03  3.37361E-01 -8.19647E-05  1.60648E-04  3.80241E-05  2.86593E-03 -2.73533E+00 -5.11295E-04  1.14116E-05  6.05398E-06  3.57601E-06  1.50000E+01
  2.03888E+01  1.97954E+01  2.00678E+01  2.94222E-01 -7.71839E-01 -7.13688E-03  3.05293E-01 -8.50770E-05  1.64267E-04  2.76273E-05  3.16553E-03 -2.69826E+00 -3.57302E-04  1.02291E-05  5.69683E-06  2.59264E-06  1.50000E+01
  2.03713E+01  1.97826E+01  2.00819E+01  2.78618E-01 -7.42504E-01 -8.85585E-03  2.88790E-01 -7.85711E-05  1.57034E-04  3.22388E-05  3.16870E-03 -2.53903E+00 -4.77784E-04  1.04672E-05  5.52629E-06  3.16739E-06  1.50000E+01
  2.04103E+01  1.97993E+01  2.01120E+01  2.96260E-01 -7.99827E-01 -1.05755E-02  3.73586E-01 -9.34181E-05  1.77473E-04  4.80106E-05  3.10223E-03 -3.01189E+00 -5.73746E-04  1.24438E-05  6.59935E-06  4.14906E-06  1.50000E+01
  2.03923E+01  1.97847E+01  2.01251E+01  2.78164E-01 -7.68933E-01 -1.21023E-02  3.29016E-01 -7.72817E-05  1.53461E-04  4.71385E-05  2.61459E-03 -2.65743E+00 -6.34973E-04  1.22427E-05  6.12273E-06  4.42945E-06  1.50000E+01
  2.04115E+01  1.97917E+01  2.01406E+01  2.85258E-01 -7.96629E-01 -1.27127E-02  3.73044E-01 -8.14903E-05  1.57327E-04  5.32727E-05  2.25684E-03 -2.71440E+00 -4.79343E-04  1.27565E-05  6.43763E-06  4.59859E-06  1.50000E+01
  2.04084E+01  1.98048E+01  2.00823E+01  3.04357E-01 -8.00998E-01 -8.06957E-03  3.16159E-01 -9.58326E-05  1.80935E-04  3.63302E-05  3.13947E-03 -3.02854E+00 -3.59510E-04  1.16243E-05  6.50314E-06  3.19810E-06  1.50000E+01
  2.04061E+01  1.98080E+01  2.00528E+01  3.09165E-01 -8.00193E-01 -5.42274E-03  3.40438E-01 -9.54131E-05  1.77045E-04  2.25703E-05  2.84106E-03 -2.77376E+00 -4.14163E-04  9.60624E-06  5.60988E-06  1.84092E-06  1.50000E+01
  2.04777E+01  1.98457E+01  2.00983E+01  3.50737E-01 -9.05505E-01 -7.75335E-03  4.40282E-01 -9.82790E-05  1.67110E-04  3.77288E-05  1.82546E-03 -2.44833E+00 -3.01629E-04  9.06853E-06  5.49599E-06  2.26439E-06  1.50000E+01
  2.04762E+01  1.98496E+01  2.00728E+01  3.56000E-01 -9.05466E-01 -5.79938E-03  3.94219E-01 -1.02228E-04  1.73015E-04  2.87510E-05  2.21906E-03 -2.53807E+00 -4.29815E-04  8.75368E-06  5.45421E-06  1.85977E-06  1.50000E+01
  2.04791E+01  1.98404E+01  2.01235E+01  3.43406E-01 -9.04753E-01 -9.57608E-03  4.53645E-01 -9.60113E-05  1.64384E-04  4.66502E-05  1.87195E-03 -2.51416E+00 -9.15213E-05  9.99293E-06  5.87186E-06  2.81647E-06  1.50000E+01
  2.04590E+01  1.98401E+01  2.00611E+01  3.45438E-01 -8.80622E-01 -4.99162E-03  3.75315E-01 -1.02994E-04  1.76224E-04  2.46959E-05  1.28669E-03 -2.52747E+00  1.23041E-04  8.65922E-06  5.38271E-06  1.68354E-06  1.50000E+01
  2.04747E+01  1.98520E+01  2.00464E+01  3.59434E-01 -9.04899E-01 -3.59425E-03  4.19862E-01 -1.16028E-04  1.93960E-04  2.05098E-05  2.03457E-03 -2.67482E+00 -2.22794E-06  8.60179E-06  5.49515E-06  1.34887E-06  1.50000E+01
  2.04048E+01  1.98097E+01  2.00240E+01  3.11848E-01 -7.99537E-01 -2.63288E-03  3.25455E-01 -9.81825E-05  1.79761E-04  1.07903E-05  3.07726E-03 -2.66583E+00 -2.90448E-04  8.49080E-06  5.09860E-06  8.71770E-07  1.50000E+01
  2.04397E+01  1.98315E+01  2.00218E+01  3.36595E-01 -8.53273E-01 -1.93398E-03  4.01620E-01 -1.06079E-04  1.85584E-04  9.80575E-06  2.67199E-03 -2.70905E+00 -1.20704E-04  8.28249E-06  5.17387E-06  8.20095E-07  1.50000E+01
  2.04220E+01  1.98208E+01  2.00089E+01  3.24694E-01 -8.26336E-01 -9.57799E-04  3.53380E-01 -9.81250E-05  1.76655E-04  4.04697E-06  3.00930E-03 -2.68398E+00 -1.82338E-04  8.39440E-06  5.16105E-06  3.62717E-07  1.50000E+01
  2.03943E+01  1.97770E+01  2.01526E+01  2.66739E-01 -7.66152E-01 -1.40331E-02  3.51374E-01 -7.27085E-05  1.45666E-04  5.43699E-05  2.39959E-03 -2.54344E+00 -6.43300E-04  1.30025E-05  6.17921E-06  4.96469E-06  1.50000E+01
  2.04134E+01  1.97832E+01  2.01677E+01  2.72977E-01 -7.93610E-01 -1.44474E-02  3.88890E-01 -8.23535E-05  1.58606E-04  6.43418E-05  2.23317E-03 -2.57959E+00 -6.30652E-04  1.35416E-05  6.47451E-06  5.16874E-06  1.50000E+01
  2.07624E+01  1.99509E+01  1.96689E+01  4.74482E-01 -1.31252E+00  1.91546E-02  6.17887E-01 -2.05290E-04  3.19653E-04 -2.04469E-04  1.91109E-03 -4.13090E+00 -3.55272E-04  2.09697E-05  1.67201E-05  1.63572E-06  1.50000E+01
  2.07438E+01  1.99470E+01  1.96842E+01  4.67623E-01 -1.28474E+00  1.67843E-02  6.45371E-01 -2.17430E-04  3.26904E-04 -2.00476E-04  1.77131E-03 -4.04000E+00 -3.11930E-04  2.02593E-05  1.59363E-05  7.42351E-07  1.50000E+01
  2.07575E+01  1.99645E+01  1.96956E+01  4.91209E-01 -1.30639E+00  1.77364E-02  6.26072E-01 -2.14459E-04  3.31911E-04 -1.92767E-04  1.91007E-03 -4.10781E+00 -3.23862E-04  2.10869E-05  1.66246E-05  1.45645E-06  1.50000E+01
  2.07391E+01  1.99600E+01  1.97111E+01  4.83692E-01 -1.27925E+00  1.55667E-02  6.33729E-01 -2.21166E-04  3.32394E-04 -1.84544E-04  1.79025E-03 -4.01977E+00 -2.79168E-04  2.08111E-05  1.62041E-05  6.64844E-07  1.50000E+01
  2.07529E+01  1.99771E+01  1.97229E+01  5.06613E-01 -1.30076E+00  1.62267E-02  6.16428E-01 -2.14357E-04  3.32461E-04 -1.73804E-04  1.90126E-03 -4.08679E+00 -2.98384E-04  2.17562E-05  1.70102E-05  1.49526E-06  1.50000E+01
  2.08201E+01  1.99585E+01  1.96242E+01  4.92630E-01 -1.40030E+00  2.99799E-02  3.06572E-01 -1.24638E-04  2.48224E-04 -1.76610E-04  2.72648E-03 -4.41727E+00  7.78659E-05  2.66637E-05  2.07314E-05  4.38112E-06  1.50000E+01
  2.08006E+01  1.99568E+01  1.96388E+01  4.87204E-01 -1.37036E+00  2.57717E-02  4.85823E-01 -1.57156E-04  2.79966E-04 -1.92966E-04  2.44995E-03 -4.31984E+00 -1.56605E-04  2.28129E-05  1.84251E-05  3.68311E-06  1.50000E+01
  2.08141E+01  1.99742E+01  1.96500E+01  5.11805E-01 -1.39212E+00  2.77337E-02  3.49727E-01 -1.23904E-04  2.43376E-04 -1.57823E-04  2.64941E-03 -4.38966E+00 -1.52022E-05  2.62095E-05  2.02996E-05  4.08281E-06  1.50000E+01
  2.04807E+01  1.98337E+01  2.01489E+01  3.34116E-01 -9.03729E-01 -1.13738E-02  4.55004E-01 -9.75898E-05  1.68558E-04  5.76942E-05  1.89918E-03 -2.63434E+00 -4.91536E-04  1.16661E-05  6.67293E-06  3.44733E-06  1.50000E+01
  2.08086E+01  1.99888E+01  1.96765E+01  5.29586E-01 -1.38447E+00  2.53846E-02  4.75230E-01 -1.36393E-04  2.58838E-04 -1.53730E-04  2.60392E-03 -4.36385E+00 -7.12054E-05  2.51566E-05  1.92116E-05  3.43921E-06  1.50000E+01
  2.08278E+01  1.99911E+01  1.96613E+01  5.36093E-01 -1.41358E+00  2.94782E-02  2.81095E-01 -8.69745E-05  2.04452E-04 -1.21186E-04  2.80039E-03 -4.45894E+00  8.08446E-05  2.86076E-05  2.17604E-05  4.98071E-06  1.50000E+01
  2.04908E+01  1.98639E+01  2.00322E+01  3.73216E-01 -9.29410E-01 -2.26211E-03  4.41190E-01 -1.20218E-04  1.98917E-04  1.43399E-05  2.49492E-03 -2.77971E+00  1.83551E-05  8.56316E-06  5.61084E-06  8.50345E-07  1.50000E+01
  2.04737E+01  1.98534E+01  2.00194E+01  3.61447E-01 -9.04402E-01 -1.31861E-03  4.49654E-01 -1.23038E-04  2.05192E-04  9.08329E-06  2.56278E-03 -2.74581E+00  9.72329E-05  8.14825E-06  5.28987E-06  6.71004E-07  1.50000E+01
  2.04302E+01  1.97981E+01  2.01562E+01  2.91719E-01 -8.23333E-01 -1.33044E-02  4.20070E-01 -8.90122E-05  1.65608E-04  6.16826E-05  1.88202E-03 -2.66091E+00 -5.66220E-04  1.27387E-05  6.45714E-06  4.60118E-06  1.50000E+01
  2.04324E+01  1.97893E+01  2.01826E+01  2.79015E-01 -8.20691E-01 -1.47972E-02  4.09965E-01 -9.57380E-05  1.76281E-04  7.64981E-05  2.38790E-03 -2.59745E+00 -7.30758E-04  1.37612E-05  6.67553E-06  5.13832E-06  1.50000E+01
  2.04487E+01  1.98044E+01  2.01713E+01  2.98023E-01 -8.49564E-01 -1.37793E-02  4.21206E-01 -9.83283E-05  1.76304E-04  7.09773E-05  2.11986E-03 -2.62862E+00 -7.65541E-04  1.29330E-05  6.65874E-06  4.52579E-06  1.50000E+01
  2.04042E+01  1.98100E+01  1.99956E+01  3.12431E-01 -7.98937E-01  2.42707E-04  3.63210E-01 -9.59406E-05  1.75446E-04 -1.62013E-06  3.19950E-03 -2.60653E+00 -1.18365E-04  8.12049E-06  4.91618E-06 -1.23023E-07  1.50000E+01
  2.04392E+01  1.98316E+01  1.99938E+01  3.36989E-01 -8.52524E-01  6.33107E-04  4.04787E-01 -1.05692E-04  1.85076E-04 -2.60726E-06  3.04991E-03 -2.70273E+00 -7.97621E-06  8.10419E-06  5.08534E-06 -2.32745E-07  1.50000E+01
  2.04217E+01  1.98204E+01  1.99808E+01  3.24146E-01 -8.25605E-01  1.79169E-03  3.54222E-01 -9.72131E-05  1.75058E-04 -7.83648E-06  3.14559E-03 -2.64661E+00 -8.56414E-06  8.30752E-06  5.09521E-06 -5.89114E-07  1.50000E+01
  2.07628E+01  2.00048E+01  1.97631E+01  5.42724E-01 -1.31704E+00  1.50575E-02  6.14520E-01 -1.99513E-04  3.25070E-04 -1.40268E-04  2.01902E-03 -4.13481E+00 -2.61044E-04  2.37457E-05  1.81416E-05  1.87929E-06  1.50000E+01
  2.07807E+01  2.00101E+01  1.97473E+01  5.51977E-01 -1.34365E+00  1.75654E-02  5.00663E-01 -1.71959E-04  2.97227E-04 -1.35237E-04  2.22157E-03 -4.22504E+00 -2.32435E-04  2.68010E-05  2.02771E-05  2.56059E-06  1.50000E+01
  2.07668E+01  1.99938E+01  1.97350E+01  5.29385E-01 -1.32223E+00  1.69115E-02  6.22278E-01 -2.00086E-04  3.24520E-04 -1.58798E-04  2.04405E-03 -4.15475E+00 -2.80048E-04  2.34490E-05  1.81817E-05  2.13783E-06  1.50000E+01
  2.04947E+01  1.98540E+01  2.01114E+01  3.59631E-01 -9.29737E-01 -8.34329E-03  4.72662E-01 -1.08983E-04  1.82440E-04  4.58575E-05  2.21251E-03 -2.66515E+00 -2.57570E-04  1.00628E-05  6.13468E-06  2.52077E-06  1.50000E+01
  2.01391E+01  1.96294E+01  2.01900E+01  5.87713E-02 -2.81665E-01 -1.19065E-02  1.83782E-01  2.51457E-06  9.33799E-05  4.00724E-05  4.23898E-03 -8.94687E-01 -4.73905E-03  3.59985E-05  1.28279E-05  4.17760E-06  1.50000E+01
  2.01209E+01  1.96171E+01  2.02011E+01  3.40344E-02 -2.27867E-01 -7.02325E-03  7.83175E-02  3.29849E-05  5.12183E-05  1.86223E-05  2.99453E-03 -7.25990E-01 -4.66671E-03  4.65196E-05  1.60622E-05  3.45915E-06  1.50000E+01
  2.01415E+01  1.96190E+01  2.02140E+01  3.66165E-02 -2.60305E-01 -6.98266E-03  8.17002E-02  3.59512E-05  5.07816E-05  2.03372E-05  2.97124E-03 -8.28546E-01 -4.24176E-03  4.95512E-05  1.75049E-05  4.60094E-06  1.50000E+01
  2.08174E+01  2.00186E+01  1.97157E+01  5.69202E-01 -1.39865E+00  2.39760E-02  2.86127E-01 -1.03944E-04  2.40774E-04 -1.15710E-04  2.75938E-03 -4.40902E+00 -3.96320E-05  3.41566E-05  2.58842E-05  6.16769E-06  1.50000E+01
  2.08362E+01  2.00216E+01  1.97001E+01  5.76794E-01 -1.42684E+00  2.78125E-02  2.72843E-01 -6.55658E-05  1.50690E-04 -7.57913E-05  3.26033E-02 -2.29932E+00  4.97462E-03  1.92367E-05  1.47254E-05  4.12865E-06  1.50000E+01
  2.08223E+01  2.00054E+01  1.96882E+01  5.53387E-01 -1.40582E+00  2.67410E-02  3.48352E-01 -1.21047E-04  2.60098E-04 -1.41091E-04  2.80711E-03 -4.43317E+00  3.34676E-05  3.11682E-05  2.38242E-05  5.65270E-06  1.50000E+01
  2.07712E+01  1.99817E+01  1.97073E+01  5.14636E-01 -1.32797E+00  1.87246E-02  5.86862E-01 -2.02309E-04  3.26799E-04 -1.79090E-04  2.06361E-03 -4.17605E+00 -2.93647E-04  2.22504E-05  1.74527E-05  2.20029E-06  1.50000E+01
  2.07850E+01  1.99984E+01  1.97193E+01  5.37877E-01 -1.34949E+00  1.96872E-02  5.92303E-01 -1.84954E-04  3.13470E-04 -1.61751E-04  2.27753E-03 -4.24603E+00 -2.22039E-04  2.47103E-05  1.90579E-05  2.84660E-06  1.50000E+01
  2.04042E+01  1.98089E+01  1.99677E+01  3.10843E-01 -7.98137E-01  3.12394E-03  3.36648E-01 -9.36608E-05  1.72121E-04 -1.33131E-05  3.10656E-03 -2.56825E+00  7.01996E-05  8.35915E-06  4.98393E-06 -1.04897E-06  1.50000E+01
  2.03874E+01  1.97982E+01  2.00390E+01  2.98372E-01 -7.71926E-01 -4.33035E-03  2.85829E-01 -9.11789E-05  1.71930E-04  1.66605E-05  3.19757E-03 -2.61550E+00 -3.23037E-04  8.67243E-06  5.02414E-06  1.47207E-06  1.50000E+01
  2.03866E+01  1.97994E+01  2.00104E+01  3.00204E-01 -7.71689E-01 -1.38063E-03  2.71052E-01 -9.36058E-05  1.75693E-04  4.75883E-06  3.26985E-03 -2.55430E+00 -1.96351E-04  8.11057E-06  4.79607E-06  4.02445E-07  1.50000E+01
  2.08067E+01  1.99409E+01  1.96133E+01  4.67625E-01 -1.37838E+00  2.75972E-02  5.04269E-01 -1.53177E-04  2.80051E-04 -2.09952E-04  2.54988E-03 -4.34720E+00 -8.66210E-05  2.31355E-05  1.87247E-05  3.86098E-06  1.50000E+01
  2.07349E+01  1.99719E+01  1.97386E+01  4.98432E-01 -1.27423E+00  1.42474E-02  6.46103E-01 -2.19970E-04  3.33485E-04 -1.65181E-04  1.79115E-03 -3.99917E+00 -2.51321E-04  2.11071E-05  1.63279E-05  7.08933E-07  1.50000E+01
  2.07488E+01  1.99886E+01  1.97507E+01  5.20647E-01 -1.29564E+00  1.46448E-02  6.27577E-01 -2.12502E-04  3.31609E-04 -1.53893E-04  1.87132E-03 -4.06616E+00 -2.73954E-04  2.20183E-05  1.70066E-05  1.31234E-06  1.50000E+01
  2.03699E+01  1.97863E+01  2.00534E+01  2.84263E-01 -7.43462E-01 -6.04868E-03  2.21727E-01 -7.87322E-05  1.55070E-04  2.07562E-05  3.37698E-03 -2.51588E+00 -3.48756E-04  9.40933E-06  5.23913E-06  1.90545E-06  1.50000E+01
  2.03513E+01  1.97771E+01  2.00394E+01  2.74085E-01 -7.15180E-01 -4.78782E-03  2.05759E-01 -7.65682E-05  1.53673E-04  1.53316E-05  3.51657E-03 -2.37451E+00 -2.98877E-04  8.97207E-06  4.98456E-06  1.36777E-06  1.50000E+01
  2.03524E+01  1.97741E+01  2.00674E+01  2.69555E-01 -7.14225E-01 -7.79965E-03  2.52567E-01 -7.59432E-05  1.54779E-04  2.65659E-05  3.46995E-03 -2.39040E+00 -4.55984E-04  9.87957E-06  5.23186E-06  2.60250E-06  1.50000E+01
  2.04932E+01  1.98586E+01  2.00854E+01  3.65935E-01 -9.29871E-01 -6.48459E-03  4.46104E-01 -1.14454E-04  1.90430E-04  3.67677E-05  2.25737E-03 -2.66925E+00 -2.75801E-04  9.37399E-06  5.87367E-06  2.03088E-06  1.50000E+01
  2.04918E+01  1.98619E+01  2.00590E+01  3.70444E-01 -9.29718E-01 -4.45623E-03  4.51763E-01 -1.16874E-04  1.93896E-04  2.58808E-05  2.47737E-03 -2.72412E+00 -2.41162E-04  8.85783E-06  5.68784E-06  1.53265E-06  1.50000E+01
  2.05072E+01  1.98756E+01  2.00180E+01  3.86597E-01 -9.53740E-01 -1.03599E-03  4.91429E-01 -1.31059E-04  2.12712E-04  8.42285E-06  2.60653E-03 -2.86784E+00  4.02392E-05  8.56202E-06  5.72554E-06  5.02617E-07  1.50000E+01
  2.04903E+01  1.98647E+01  2.00050E+01  3.74320E-01 -9.29080E-01 -2.90602E-05  4.40481E-01 -1.21566E-04  2.00985E-04  2.05816E-06  2.69259E-03 -2.81474E+00  1.34845E-04  8.36333E-06  5.53055E-06  9.10130E-08  1.50000E+01
  2.07897E+01  1.99856E+01  1.96918E+01  5.22359E-01 -1.35589E+00  2.17801E-02  5.89875E-01 -1.79729E-04  3.07542E-04 -1.76451E-04  2.31577E-03 -4.26918E+00 -2.14855E-04  2.41017E-05  1.87137E-05  2.86516E-06  1.50000E+01
  2.07949E+01  1.99717E+01  1.96650E+01  5.05460E-01 -1.36286E+00  2.38195E-02  5.25290E-01 -1.65689E-04  2.89626E-04 -1.82594E-04  2.38184E-03 -4.29434E+00 -1.96260E-04  2.38440E-05  1.86254E-05  3.00031E-06  1.50000E+01
  2.07254E+01  1.99425E+01  1.96995E+01  4.60631E-01 -1.25765E+00  1.49692E-02  6.62994E-01 -2.22868E-04  3.26980E-04 -1.91917E-04  1.73265E-03 -3.95237E+00 -2.23445E-04  1.94793E-05  1.51819E-05  1.73751E-07  1.50000E+01
  2.03750E+01  1.97704E+01  2.01377E+01  2.60178E-01 -7.38267E-01 -1.35526E-02  3.14437E-01 -7.51890E-05  1.52948E-04  5.22173E-05  2.78165E-03 -2.46452E+00 -7.34773E-04  1.27179E-05  6.01875E-06  4.80679E-06  1.50000E+01
  2.03579E+01  1.97562E+01  2.01500E+01  2.41813E-01 -7.06996E-01 -1.48991E-02  2.79984E-01 -7.21468E-05  1.51509E-04  5.68060E-05  2.88735E-03 -2.32786E+00 -9.10808E-04  1.35640E-05  6.03869E-06  5.33380E-06  1.50000E+01
  2.03773E+01  1.97623E+01  2.01646E+01  2.47861E-01 -7.35135E-01 -1.52639E-02  3.20785E-01 -6.85947E-05  1.42814E-04  5.82572E-05  2.66816E-03 -2.41135E+00 -8.42337E-04  1.39184E-05  6.21375E-06  5.56693E-06  1.50000E+01
  2.08035E+01  2.00023E+01  1.97036E+01  5.45947E-01 -1.37738E+00  2.29766E-02  4.96863E-01 -1.54814E-04  2.88016E-04 -1.54220E-04  2.55813E-03 -4.33935E+00 -1.04463E-04  2.59454E-05  1.97213E-05  3.48495E-06  1.50000E+01
  2.07489E+01  1.99330E+01  1.96578E+01  4.50281E-01 -1.29071E+00  1.78817E-02  6.36118E-01 -2.17008E-04  3.24884E-04 -2.19266E-04  1.77411E-03 -4.06229E+00 -3.40841E-04  2.00362E-05  1.59585E-05  9.12524E-07  1.50000E+01
  2.07302E+01  1.99291E+01  1.96730E+01  4.43894E-01 -1.26300E+00  1.59090E-02  6.35106E-01 -2.22839E-04  3.25244E-04 -2.10462E-04  1.70011E-03 -3.97194E+00 -2.52140E-04  1.95894E-05  1.53492E-05  1.33342E-07  1.50000E+01
  2.04512E+01  1.97952E+01  2.01971E+01  2.84943E-01 -8.47572E-01 -1.50095E-02  4.46321E-01 -1.09410E-04  1.93646E-04  8.98391E-05  2.67503E-03 -2.63781E+00 -8.23763E-04  1.42470E-05  7.02094E-06  5.19934E-06  1.50000E+01
  2.04672E+01  1.98107E+01  2.01859E+01  3.04376E-01 -8.75768E-01 -1.40273E-02  4.69580E-01 -1.10017E-04  1.90803E-04  8.24056E-05  2.52520E-03 -2.67384E+00 -7.73376E-04  1.33944E-05  6.99528E-06  4.59434E-06  1.50000E+01
  2.04351E+01  1.97794E+01  2.02084E+01  2.64826E-01 -8.18196E-01 -1.58525E-02  4.02322E-01 -1.04344E-04  1.89817E-04  9.42131E-05  2.64399E-03 -2.58467E+00 -8.76941E-04  1.51076E-05  6.97963E-06  5.85193E-06  1.50000E+01
  2.04392E+01  1.98304E+01  1.99661E+01  3.35385E-01 -8.51768E-01  3.22007E-03  3.91758E-01 -1.04329E-04  1.83403E-04 -1.46429E-05  3.11717E-03 -2.68900E+00  1.24857E-04  8.34323E-06  5.15238E-06 -1.15013E-06  1.50000E+01
  2.07813E+01  1.99542E+01  1.96538E+01  4.81075E-01 -1.34107E+00  2.21460E-02  5.82578E-01 -1.86381E-04  3.05873E-04 -2.03429E-04  2.15247E-03 -4.22478E+00 -3.06800E-04  2.17356E-05  1.75254E-05  2.66802E-06  1.50000E+01
  2.07871E+01  1.99390E+01  1.96279E+01  4.62340E-01 -1.34839E+00  2.37007E-02  5.60483E-01 -1.81323E-04  3.02138E-04 -2.18941E-04  2.22453E-03 -4.24969E+00 -2.85761E-04  2.15374E-05  1.76822E-05  3.03906E-06  1.50000E+01
  2.07679E+01  1.99363E+01  1.96427E+01  4.56485E-01 -1.31916E+00  2.04609E-02  6.02371E-01 -2.03647E-04  3.17333E-04 -2.22733E-04  1.95913E-03 -4.15526E+00 -3.61789E-04  2.07221E-05  1.66830E-05  1.77081E-06  1.50000E+01
  2.07117E+01  1.99247E+01  1.96882E+01  4.37418E-01 -1.23590E+00  1.44515E-02  6.41598E-01 -2.21966E-04  3.20142E-04 -1.98413E-04  1.71325E-03 -3.88476E+00 -1.40985E-04  1.90727E-05  1.46284E-05 -5.42448E-07  1.50000E+01
  2.05121E+01  1.98623E+01  2.01250E+01  3.68476E-01 -9.54448E-01 -8.85346E-03  4.92926E-01 -1.18092E-04  1.95140E-04  5.43826E-05  2.56809E-03 -2.81013E+00 -2.75706E-04  1.10710E-05  6.84655E-06  2.58689E-06  1.50000E+01
  2.04965E+01  1.98481E+01  2.01372E+01  3.51505E-01 -9.29393E-01 -1.00759E-02  4.66824E-01 -1.06437E-04  1.79558E-04  5.58314E-05  2.39305E-03 -2.71021E+00 -2.42196E-04  1.11752E-05  6.66034E-06  2.96373E-06  1.50000E+01
  2.03730E+01  1.97773E+01  2.01101E+01  2.70531E-01 -7.40782E-01 -1.13889E-02  2.90753E-01 -7.71193E-05  1.55592E-04  4.25352E-05  2.99303E-03 -2.51916E+00 -6.00979E-04  1.15066E-05  5.76420E-06  3.96536E-06  1.50000E+01
  2.03539E+01  1.97696E+01  2.00954E+01  2.62570E-01 -7.12551E-01 -1.05514E-02  2.24562E-01 -7.83546E-05  1.60183E-04  3.82642E-05  3.27703E-03 -2.38729E+00 -6.03444E-04  1.11530E-05  5.61654E-06  3.55309E-06  1.50000E+01
  2.01232E+01  1.96065E+01  2.02248E+01  1.05186E-02 -2.02005E-01  0.00000E+00 -7.97183E-02  3.38821E-05 -5.25615E-06 -4.96071E-06  4.10485E+00  1.11931E+01 -1.91363E+01  2.81771E-05  9.32362E-06  2.49702E-06  1.50000E+01
  2.08473E+01  1.99927E+01  1.96465E+01  5.41717E-01 -1.44309E+00  3.39856E-02 -5.86128E-02 -2.41379E-05  7.72665E-05 -4.45742E-05  3.15547E-02 -2.32746E+00  6.50815E-03  1.51605E-05  1.14196E-05  2.83285E-06  1.50000E+01
  2.08337E+01  1.99758E+01  1.96352E+01  5.17335E-01 -1.42190E+00  3.21380E-02 -4.56006E-02 -8.36475E-05  2.03374E-04 -1.30937E-04  2.83357E-03 -4.48660E+00  1.76602E-04  3.16428E-05  2.43926E-05  5.92863E-06  1.50000E+01
  2.07355E+01  1.99147E+01  1.96469E+01  4.25930E-01 -1.26878E+00  1.67017E-02  6.63413E-01 -2.27258E-04  3.29106E-04 -2.33116E-04  1.69444E-03 -3.99361E+00 -2.76600E-04  2.01143E-05  1.56979E-05 -2.28467E-08  1.50000E+01
  2.07167E+01  1.99108E+01  1.96620E+01  4.20009E-01 -1.24107E+00  1.51281E-02  6.68339E-01 -2.27751E-04  3.25330E-04 -2.21402E-04  1.67327E-03 -3.90366E+00 -1.60738E-04  1.97226E-05  1.50527E-05 -8.00523E-07  1.50000E+01
  2.03864E+01  1.97990E+01  1.99823E+01  2.99759E-01 -7.71122E-01  1.63176E-03  2.71957E-01 -9.04459E-05  1.70371E-04 -7.13386E-06  3.20347E-03 -2.50872E+00 -8.05167E-06  7.96218E-06  4.70064E-06 -6.55909E-07  1.50000E+01
  2.04986E+01  1.98409E+01  2.01630E+01  3.41582E-01 -9.29008E-01 -1.16776E-02  4.85743E-01 -1.10684E-04  1.86604E-04  6.89108E-05  2.35554E-03 -2.76227E+00 -4.57253E-04  1.24068E-05  7.19118E-06  3.51538E-06  1.50000E+01
  2.03967E+01  1.97682E+01  2.01793E+01  2.53674E-01 -7.63046E-01 -1.55348E-02  3.62790E-01 -7.68631E-05  1.53548E-04  6.75017E-05  2.52022E-03 -2.47704E+00 -7.92976E-04  1.44168E-05  6.49261E-06  5.73694E-06  1.50000E+01
  2.04160E+01  1.97739E+01  2.01939E+01  2.59315E-01 -7.90707E-01 -1.57401E-02  4.12249E-01 -9.10497E-05  1.72682E-04  8.06764E-05  2.50856E-03 -2.53016E+00 -8.23894E-04  1.48001E-05  6.69113E-06  5.91818E-06  1.50000E+01
  2.01571E+01  1.96419E+01  2.01787E+01  8.20192E-02 -3.29674E-01 -1.47647E-02  1.74403E-01 -9.84458E-06  9.86920E-05  4.24650E-05  4.20419E-03 -1.04592E+00 -3.80582E-03  2.87134E-05  1.04639E-05  4.58009E-06  1.50000E+01
  2.01368E+01  1.96386E+01  2.01657E+01  7.84481E-02 -2.99140E-01 -1.43917E-02  1.54322E-01 -3.79689E-06  9.24339E-05  3.56602E-05  4.71293E-03 -9.45776E-01 -4.07866E-03  3.05015E-05  1.12429E-05  3.77305E-06  1.50000E+01
  2.07933E+01  1.99228E+01  1.96026E+01  4.42350E-01 -1.35621E+00  2.51050E-02  5.56018E-01 -1.75930E-04  3.03552E-04 -2.38200E-04  2.33131E-03 -4.27668E+00 -2.37973E-04  2.34664E-05  1.89001E-05  2.94264E-06  1.50000E+01
  2.03328E+01  1.97677E+01  2.00256E+01  2.63536E-01 -6.86662E-01 -3.35807E-03  1.89682E-01 -6.47143E-05  1.36512E-04  9.06954E-06  3.51481E-03 -2.25117E+00 -2.05894E-04  8.99970E-06  4.95031E-06  8.36797E-07  1.50000E+01
  2.03336E+01  1.97655E+01  2.00533E+01  2.60140E-01 -6.85828E-01 -6.57196E-03  2.24600E-01 -6.99060E-05  1.46700E-04  1.99786E-05  3.55854E-03 -2.26233E+00 -4.09287E-04  9.54647E-06  5.07363E-06  1.87286E-06  1.50000E+01
  2.05104E+01  1.98675E+01  2.00987E+01  3.75634E-01 -9.54392E-01 -7.10741E-03  4.52278E-01 -1.21559E-04  1.99767E-04  4.39192E-05  2.52254E-03 -2.79870E+00 -2.49842E-04  1.01820E-05  6.42126E-06  2.23828E-06  1.50000E+01
  2.05090E+01  1.98715E+01  2.00721E+01  3.81036E-01 -9.54244E-01 -5.21110E-03  4.85353E-01 -1.25091E-04  2.04726E-04  3.29160E-05  2.54172E-03 -2.81090E+00 -1.99909E-04  9.45743E-06  6.10323E-06  1.74201E-06  1.50000E+01
  2.03605E+01  1.97475E+01  2.01765E+01  2.28412E-01 -7.03203E-01 -1.63178E-02  3.18521E-01 -6.48955E-05  1.40887E-04  6.21922E-05  2.68226E-03 -2.29457E+00 -1.00644E-03  1.49105E-05  6.19592E-06  6.25493E-06  1.50000E+01
  2.03436E+01  1.97325E+01  2.01883E+01  2.08344E-01 -6.70205E-01 -1.71216E-02  3.25836E-01 -6.38381E-05  1.43284E-04  6.80559E-05  2.66795E-03 -2.17610E+00 -1.17350E-03  1.60281E-05  6.25296E-06  6.79409E-06  1.50000E+01
  2.03633E+01  1.97375E+01  2.02024E+01  2.13208E-01 -6.98830E-01 -1.71534E-02  3.39974E-01 -6.64109E-05  1.44585E-04  7.32164E-05  2.53594E-03 -2.26402E+00 -1.11015E-03  1.65482E-05  6.55030E-06  6.93351E-06  1.50000E+01
  2.06981E+01  1.99065E+01  1.96771E+01  4.14021E-01 -1.21389E+00  1.40145E-02  6.57442E-01 -2.23856E-04  3.19118E-04 -2.08447E-04  1.72069E-03 -3.81651E+00 -4.13130E-05  1.91182E-05  1.44217E-05 -1.15786E-06  1.50000E+01
  2.03690E+01  1.97884E+01  2.00251E+01  2.87435E-01 -7.43791E-01 -3.05519E-03  1.58127E-01 -8.96578E-05  1.72233E-04  1.08725E-05  3.42422E-03 -2.47603E+00 -2.35535E-04  8.59896E-06  4.94439E-06  9.07500E-07  1.50000E+01
  2.03685E+01  1.97889E+01  1.99969E+01  2.88209E-01 -7.43588E-01  5.12124E-05  1.51958E-01 -9.14183E-05  1.74992E-04 -1.10440E-06  3.32369E-03 -2.43781E+00 -6.91684E-05  8.28839E-06  4.81302E-06 -1.26718E-07  1.50000E+01
  2.05079E+01  1.98742E+01  2.00452E+01  3.84693E-01 -9.54012E-01 -3.17240E-03  4.80424E-01 -1.29065E-04  2.10144E-04  2.11275E-05  2.62651E-03 -2.83908E+00 -1.15887E-04  8.95810E-06  5.90230E-06  1.21870E-06  1.50000E+01
  2.07737E+01  1.99208E+01  1.96172E+01  4.37256E-01 -1.32628E+00  2.16259E-02  6.08435E-01 -2.01361E-04  3.19311E-04 -2.43077E-04  2.01703E-03 -4.17954E+00 -3.55139E-04  2.22930E-05  1.77914E-05  1.71179E-06  1.50000E+01
  2.07545E+01  1.99180E+01  1.96320E+01  4.31720E-01 -1.29715E+00  1.88393E-02  6.28632E-01 -2.19050E-04  3.27402E-04 -2.41132E-04  1.81392E-03 -4.08583E+00 -3.52006E-04  2.09106E-05  1.64146E-05  5.88813E-07  1.50000E+01
  2.03557E+01  1.97636E+01  2.01230E+01  2.53262E-01 -7.10139E-01 -1.29491E-02  2.50402E-01 -7.58041E-05  1.56910E-04  4.85016E-05  3.08564E-03 -2.36264E+00 -7.59136E-04  1.23675E-05  5.88915E-06  4.42249E-06  1.50000E+01
  2.03365E+01  1.97565E+01  2.01085E+01  2.45998E-01 -6.81838E-01 -1.21973E-02  2.34076E-01 -7.34121E-05  1.55603E-04  4.26128E-05  3.25731E-03 -2.25284E+00 -7.78360E-04  1.19507E-05  5.70764E-06  4.00768E-06  1.50000E+01
  2.05400E+01  1.98981E+01  1.99895E+01  4.12174E-01 -1.00174E+00  1.07028E-03  5.11153E-01 -1.34766E-04  2.15809E-04 -5.22901E-06  2.56849E-03 -3.04320E+00  5.43326E-05  9.46999E-06  6.49209E-06 -2.82354E-07  1.50000E+01
  2.05236E+01  1.98864E+01  1.99762E+01  3.98792E-01 -9.77687E-01  2.12229E-03  5.22660E-01 -1.40720E-04  2.25567E-04 -1.22773E-05  2.62418E-03 -2.97753E+00  1.27351E-04  9.08584E-06  6.13062E-06 -7.50108E-07  1.50000E+01
  2.05236E+01  1.98870E+01  2.00038E+01  3.99569E-01 -9.77836E-01  7.17108E-05  5.26463E-01 -1.38006E-04  2.21552E-04  1.68225E-06  2.59971E-03 -2.95607E+00  4.54228E-05  8.74457E-06  5.93296E-06  9.38305E-08  1.50000E+01
  2.07800E+01  1.99043E+01  1.95922E+01  4.16840E-01 -1.33387E+00  2.26166E-02  6.64277E-01 -2.01506E-04  3.26558E-04 -2.68962E-04  2.11301E-03 -4.20584E+00 -3.22142E-04  2.40062E-05  1.83641E-05  1.03852E-06  1.50000E+01
  2.05166E+01  1.98479E+01  2.01773E+01  3.48889E-01 -9.54482E-01 -1.18645E-02  4.97289E-01 -1.22464E-04  2.01946E-04  8.00489E-05  2.45424E-03 -2.86488E+00 -4.21623E-04  1.31859E-05  7.79704E-06  3.48152E-06  1.50000E+01
  2.05142E+01  1.98557E+01  2.01512E+01  3.59546E-01 -9.54455E-01 -1.04482E-02  5.04401E-01 -1.17188E-04  1.93997E-04  6.53348E-05  2.53709E-03 -2.83622E+00 -3.00119E-04  1.19916E-05  7.25526E-06  2.98797E-06  1.50000E+01
  2.03348E+01  1.97618E+01  2.00810E+01  2.54266E-01 -6.84217E-01 -9.55484E-03  2.30232E-01 -7.54451E-05  1.57670E-04  3.26764E-05  3.44981E-03 -2.26367E+00 -6.04069E-04  1.06311E-05  5.37747E-06  3.02894E-06  1.50000E+01
  2.03830E+01  1.97424E+01  2.02166E+01  2.17951E-01 -7.27398E-01 -1.71037E-02  3.62802E-01 -8.07535E-05  1.64898E-04  8.81087E-05  2.46857E-03 -2.34586E+00 -1.07883E-03  1.68510E-05  6.74140E-06  7.02571E-06  1.50000E+01
  2.04026E+01  1.97472E+01  2.02307E+01  2.22590E-01 -7.55912E-01 -1.69852E-02  4.27758E-01 -9.37758E-05  1.82266E-04  1.02368E-04  2.44078E-03 -2.42314E+00 -1.06677E-03  1.71427E-05  6.91389E-06  7.15455E-06  1.50000E+01
  2.03995E+01  1.97582E+01  2.02052E+01  2.38957E-01 -7.59626E-01 -1.65369E-02  3.91409E-01 -8.75172E-05  1.71259E-04  8.57522E-05  2.51795E-03 -2.44486E+00 -9.49404E-04  1.55927E-05  6.62383E-06  6.43461E-06  1.50000E+01
  2.01166E+01  1.96351E+01  2.01527E+01  7.44160E-02 -2.68029E-01 -1.36412E-02  1.45021E-01 -3.90314E-07  9.08788E-05  3.09321E-05  5.30192E-03 -8.42737E-01 -4.26018E-03  3.18154E-05  1.18391E-05  2.88007E-06  1.50000E+01
  2.00983E+01  1.96239E+01  2.01642E+01  5.19873E-02 -2.18529E-01 -1.11123E-02  1.49277E-01  7.81523E-06  8.62710E-05  2.98339E-05  4.93381E-03 -6.86364E-01 -5.52658E-03  3.58677E-05  1.24401E-05  2.65071E-06  1.50000E+01