 TITLE="3D TRIANGULAR SURFACE DATA"
VARIABLES="X","Y","Z","U","V","W","P", "Fex", "Fey", "Fez","Finx","Finy","Finz","WSSx","WSSy","WSSz","AMForce"
 ZONE T="unstruc"N=        1757 E=        3355 F=FEPOINT  ET=TRIANGLE
  2.03599E+01  1.98858E+01  2.00987E+01  2.39774E-01  1.29186E+00  5.86952E-04 -1.26468E+00 -5.90935E-04 -6.78175E-04  1.70726E-04  3.85350E-03  5.34479E+00  6.10408E-04  3.15477E-05 -3.13979E-05 -3.87316E-06  1.50000E+01
  2.03764E+01  1.98700E+01  2.00989E+01  2.44210E-01  1.29481E+00 -1.18913E-05 -1.26969E+00 -2.76444E-04 -3.17348E-04  7.78394E-05  1.17751E-03  2.51178E+00 -1.01819E-03  1.48846E-05 -1.48544E-05 -1.95908E-06  1.50000E+01
  2.03712E+01  1.98699E+01  2.00774E+01  2.43921E-01  1.29126E+00  1.60423E-04 -1.28853E+00 -4.03124E-04 -4.64802E-04  8.83775E-05  2.92513E-03  3.70239E+00 -7.10412E-04  2.16481E-05 -2.12192E-05 -2.48966E-06  1.50000E+01
  2.03605E+01  1.98950E+01  2.01300E+01  2.37687E-01  1.29650E+00  6.20754E-04 -1.27347E+00 -4.99102E-04 -5.67663E-04  1.88057E-04  2.92970E-03  4.52388E+00  2.68924E-04  2.70955E-05 -2.77854E-05 -3.88934E-06  1.50000E+01
  2.03753E+01  1.98774E+01  2.01202E+01  2.42983E-01  1.29805E+00  2.27032E-04 -1.26160E+00 -4.06923E-04 -4.63020E-04  1.40415E-04  2.11553E-03  3.69877E+00  1.16785E-04  2.20515E-05 -2.25339E-05 -3.23652E-06  1.50000E+01
  2.03888E+01  1.98614E+01  2.01111E+01  2.46625E-01  1.29798E+00 -1.18087E-04 -1.26572E+00 -3.46796E-04 -3.97812E-04  1.08320E-04  2.03211E-03  3.18338E+00 -3.35690E-04  1.89436E-05 -1.91252E-05 -2.79074E-06  1.50000E+01
  2.03866E+01  1.98573E+01  2.00870E+01  2.46859E-01  1.29394E+00  2.37579E-05 -1.29159E+00 -3.46112E-04 -4.00193E-04  8.34427E-05  2.31616E-03  3.19196E+00  1.11004E-04  1.87507E-05 -1.84490E-05 -2.37328E-06  1.50000E+01
  2.03678E+01  1.98685E+01  2.00502E+01  2.43747E-01  1.28831E+00  2.92783E-04 -1.25288E+00 -4.27340E-04 -4.97654E-04  6.16600E-05  2.56327E-03  4.02435E+00  9.87175E-05  2.28348E-05 -2.18610E-05 -1.88796E-06  1.50000E+01
  2.03543E+01  1.98839E+01  2.00669E+01  2.39618E-01  1.28723E+00  6.06996E-04 -1.23974E+00 -4.90481E-04 -5.69031E-04  9.84735E-05  2.57384E-03  4.53379E+00  5.78136E-04  2.60159E-05 -2.51665E-05 -2.49308E-06  1.50000E+01
  2.03515E+01  1.98824E+01  2.00377E+01  2.39679E-01  1.28466E+00  4.34525E-04 -1.23739E+00 -4.52181E-04 -5.27423E-04  5.09750E-05  2.46162E-03  4.25320E+00  2.43978E-04  2.36273E-05 -2.24213E-05 -1.47430E-06  1.50000E+01
  2.03771E+01  1.98851E+01  2.01465E+01  2.41762E-01  1.30322E+00  1.95580E-04 -1.28735E+00 -4.43195E-04 -4.99644E-04  1.84374E-04  2.77363E-03  3.99697E+00  2.50886E-04  2.40138E-05 -2.52366E-05 -3.98952E-06  1.50000E+01
  2.03906E+01  1.98677E+01  2.01358E+01  2.46152E-01  1.30291E+00 -1.69617E-04 -1.28789E+00 -4.05324E-04 -4.59622E-04  1.53847E-04  2.59715E-03  3.68440E+00 -6.09768E-05  2.21164E-05 -2.29913E-05 -3.69415E-06  1.50000E+01
  2.03251E+01  1.99189E+01  2.00978E+01  2.26963E-01  1.28111E+00  1.07016E-03 -1.25246E+00 -4.95037E-04 -5.72080E-04  1.50399E-04  2.48853E-03  4.54399E+00  1.61932E-04  2.68488E-05 -2.64677E-05 -2.85018E-06  1.50000E+01
  2.03223E+01  1.99145E+01  2.00686E+01  2.28196E-01  1.27770E+00  8.72967E-04 -1.22874E+00 -4.81575E-04 -5.61097E-04  1.03498E-04  2.46011E-03  4.46512E+00  1.11041E-04  2.57982E-05 -2.48274E-05 -2.15983E-06  1.50000E+01
  2.03077E+01  1.99316E+01  2.00830E+01  2.20799E-01  1.27267E+00  1.08576E-03 -1.24786E+00 -4.70959E-04 -5.48399E-04  1.25111E-04  2.42871E-03  4.34979E+00  1.23030E-04  2.56499E-05 -2.48449E-05 -2.23736E-06  1.50000E+01
  2.03431E+01  1.99063E+01  2.01132E+01  2.32769E-01  1.28911E+00  8.92072E-04 -1.25356E+00 -5.33208E-04 -6.11238E-04  1.80800E-04  2.96035E-03  4.85276E+00  3.88460E-05  2.89293E-05 -2.90905E-05 -3.69128E-06  1.50000E+01
  2.03283E+01  1.99251E+01  2.01266E+01  2.25081E-01  1.28548E+00  1.14770E-03 -1.24688E+00 -4.84193E-04 -5.54348E-04  1.88459E-04  2.54061E-03  4.44099E+00  1.06050E-04  2.70317E-05 -2.74643E-05 -3.43855E-06  1.50000E+01
  2.03460E+01  1.99138E+01  2.01421E+01  2.30705E-01  1.29412E+00  8.75189E-04 -1.27190E+00 -4.84095E-04 -5.48462E-04  2.04987E-04  2.68914E-03  4.40797E+00  1.85812E-05  2.67990E-05 -2.78071E-05 -3.78969E-06  1.50000E+01
  2.03400E+01  1.99009E+01  2.00832E+01  2.33995E-01  1.28491E+00  8.30585E-04 -1.25841E+00 -5.30054E-04 -6.13181E-04  1.34366E-04  2.66807E-03  4.85721E+00  1.59736E-04  2.81402E-05 -2.74788E-05 -2.82588E-06  1.50000E+01
  2.03370E+01  1.98980E+01  2.00535E+01  2.34534E-01  1.28172E+00  6.59085E-04 -1.23163E+00 -4.76138E-04 -5.54683E-04  7.81897E-05  2.50228E-03  4.44194E+00  1.66569E-04  2.50867E-05 -2.39760E-05 -1.82549E-06  1.50000E+01
  2.04015E+01  1.98460E+01  2.00992E+01  2.48903E-01  1.29589E+00 -1.60207E-04 -1.28654E+00 -3.80195E-04 -4.41360E-04  1.03371E-04  2.98688E-03  3.50597E+00 -3.76877E-05  2.09639E-05 -2.07859E-05 -3.05749E-06  1.50000E+01
  2.03992E+01  1.98425E+01  2.00735E+01  2.48728E-01  1.29193E+00 -8.11456E-06 -1.30001E+00 -3.86276E-04 -4.52014E-04  7.70837E-05  3.10528E-03  3.62270E+00  8.07266E-05  2.13893E-05 -2.07278E-05 -2.67076E-06  1.50000E+01
  2.04039E+01  1.98510E+01  2.01246E+01  2.48974E-01  1.30088E+00 -3.91409E-04 -1.27126E+00 -3.91279E-04 -4.49527E-04  1.33819E-04  2.94878E-03  3.61713E+00 -2.61524E-04  2.18147E-05 -2.22628E-05 -3.60285E-06  1.50000E+01
  2.03837E+01  1.98552E+01  2.00617E+01  2.46816E-01  1.29067E+00  8.49696E-05 -1.28410E+00 -3.93470E-04 -4.58109E-04  6.70709E-05  2.90083E-03  3.70502E+00 -1.55384E-04  2.14439E-05 -2.06946E-05 -2.21616E-06  1.50000E+01
  2.03973E+01  1.98403E+01  2.00469E+01  2.48498E-01  1.28908E+00  1.69833E-05 -1.26546E+00 -3.97810E-04 -4.68274E-04  5.02978E-05  3.24865E-03  3.81134E+00 -5.77310E-05  2.21121E-05 -2.10281E-05 -2.09318E-06  1.50000E+01
  2.03352E+01  1.98965E+01  2.00243E+01  2.34806E-01  1.27991E+00  3.79073E-04 -1.22650E+00 -4.55055E-04 -5.31318E-04  3.42728E-05  2.47927E-03  4.26615E+00  1.14655E-04  2.34048E-05 -2.20548E-05 -9.31542E-07  1.50000E+01
  2.03660E+01  1.98675E+01  2.00220E+01  2.43677E-01  1.28661E+00  1.97218E-04 -1.24120E+00 -4.30149E-04 -5.02516E-04  2.73941E-05  2.58855E-03  4.08436E+00  1.27702E-04  2.25294E-05 -2.12551E-05 -1.04764E-06  1.50000E+01
  2.03502E+01  1.98817E+01  2.00090E+01  2.39703E-01  1.28353E+00  1.76374E-04 -1.23547E+00 -4.41532E-04 -5.15522E-04  1.22144E-05  2.51796E-03  4.16788E+00  1.15372E-04  2.26405E-05 -2.12903E-05 -4.29226E-07  1.50000E+01
  2.03321E+01  1.99327E+01  2.01543E+01  2.22563E-01  1.29080E+00  1.12152E-03 -1.27935E+00 -4.66274E-04 -5.27009E-04  2.19760E-04  2.55409E-03  4.28298E+00  5.57885E-05  2.65525E-05 -2.78211E-05 -3.64151E-06  1.50000E+01
  2.03498E+01  1.99222E+01  2.01694E+01  2.28230E-01  1.30017E+00  7.54855E-04 -1.27422E+00 -4.61363E-04 -5.15565E-04  2.31490E-04  2.61376E-03  4.22441E+00  3.53007E-05  2.60068E-05 -2.79518E-05 -4.08219E-06  1.50000E+01
  2.06836E+01  1.97034E+01  1.96772E+01  2.76677E-02  1.07314E+00 -1.40993E-01 -7.70826E-01 -1.65000E-04 -4.00209E-04 -1.26540E-04  1.75764E-03  3.39827E+00 -4.13088E-03  3.29579E-05 -2.49171E-05  1.80207E-05  1.50000E+01
  2.06637E+01  1.97092E+01  1.96906E+01  5.09927E-02  1.09674E+00 -1.19459E-01 -8.09903E-01 -1.99177E-04 -4.29588E-04 -1.44235E-04  4.85013E-03  3.47172E+00 -1.42567E-03  3.22625E-05 -2.58769E-05  1.71909E-05  1.50000E+01
  2.06790E+01  1.96958E+01  1.97044E+01 -8.82999E-03  9.85963E-01 -1.48692E-01 -8.13084E-01 -1.65770E-04 -4.37955E-04 -1.17708E-04 -2.65465E-03  3.11768E+00 -7.39693E-03  3.37331E-05 -2.22543E-05  1.70553E-05  1.50000E+01
  2.06591E+01  1.97015E+01  1.97178E+01  1.71494E-02  1.01923E+00 -1.26231E-01 -9.90620E-01 -2.14038E-04 -4.98500E-04 -1.42558E-04  9.44518E-04  3.22387E+00 -4.37376E-03  3.33142E-05 -2.36940E-05  1.70176E-05  1.50000E+01
  2.06751E+01  1.96893E+01  1.97319E+01 -4.47219E-02  8.95426E-01 -1.52550E-01 -9.86449E-01 -1.69726E-04 -4.88836E-04 -1.10614E-04 -7.43998E-03  2.82527E+00 -1.02257E-02  3.24725E-05 -1.85861E-05  1.53603E-05  1.50000E+01
  2.07450E+01  1.96884E+01  1.96385E+01 -2.54373E-02  1.02892E+00 -2.01706E-01 -2.56396E-01 -2.86346E-05 -1.78814E-04 -3.67276E-05 -3.26655E-03  3.25860E+00 -1.01316E-02  3.91316E-05 -2.39662E-05  1.87327E-05  1.50000E+01
  2.07243E+01  1.96930E+01  1.96511E+01 -1.09193E-02  1.03789E+00 -1.82611E-01 -7.30464E-01 -8.54981E-05 -2.88514E-04 -7.74342E-05 -2.63334E-03  3.28666E+00 -8.81968E-03  3.60862E-05 -2.38200E-05  1.86070E-05  1.50000E+01
  2.07404E+01  1.96814E+01  1.96654E+01 -6.77722E-02  9.16881E-01 -2.11557E-01 -3.89657E-01 -5.30153E-05 -2.61269E-04 -5.14855E-05 -7.41436E-03  2.89757E+00 -1.28217E-02  3.92810E-05 -2.05547E-05  1.73050E-05  1.50000E+01
  2.04068E+01  1.98573E+01  2.01502E+01  2.48937E-01  1.30696E+00 -6.51295E-04 -1.29273E+00 -4.17177E-04 -4.72594E-04  1.70758E-04  3.21341E-03  3.81098E+00 -2.28089E-04  2.29444E-05 -2.41884E-05 -4.20573E-06  1.50000E+01
  2.07364E+01  1.96756E+01  1.96927E+01 -1.07794E-01  8.00661E-01 -2.15595E-01 -5.39183E-01 -6.07684E-05 -3.05970E-04 -5.22421E-05 -1.10592E-02  2.52205E+00 -1.43611E-02  3.76877E-05 -1.64332E-05  1.37450E-05  1.50000E+01
  2.07572E+01  1.96715E+01  1.96801E+01 -1.22434E-01  7.85171E-01 -2.34566E-01 -2.05454E-01 -4.05786E-06 -1.41849E-04 -1.59639E-05 -1.00504E-02  2.47453E+00 -1.39415E-02  3.90036E-05 -1.62666E-05  1.38365E-05  1.50000E+01
  2.04115E+01  1.98256E+01  2.00324E+01  2.48641E-01  1.28593E+00 -3.63903E-05 -1.30887E+00 -3.92697E-04 -4.68634E-04  3.34166E-05  3.69458E-03  3.84719E+00 -7.09523E-05  2.28406E-05 -2.13885E-05 -1.70618E-06  1.50000E+01
  2.03961E+01  1.98391E+01  2.00195E+01  2.48278E-01  1.28749E+00 -1.48059E-05 -1.25939E+00 -4.03396E-04 -4.76524E-04  2.10332E-05  3.16853E-03  3.90914E+00 -1.86251E-05  2.23930E-05 -2.10022E-05 -1.09382E-06  1.50000E+01
  2.03633E+01  1.99034E+01  2.01578E+01  2.35716E-01  1.30224E+00  4.89154E-04 -1.28199E+00 -4.64602E-04 -5.20926E-04  2.12313E-04  2.64071E-03  4.20807E+00  8.79890E-05  2.53796E-05 -2.69478E-05 -4.06826E-06  1.50000E+01
  2.03674E+01  1.99120E+01  2.01843E+01  2.33492E-01  1.30906E+00  2.43413E-04 -1.31166E+00 -4.49108E-04 -4.97053E-04  2.38505E-04  2.75882E-03  4.14153E+00  3.84125E-05  2.53789E-05 -2.80112E-05 -4.57642E-06  1.50000E+01
  2.03805E+01  1.98932E+01  2.01729E+01  2.40265E-01  1.30975E+00 -5.67814E-05 -1.31059E+00 -4.42078E-04 -4.92198E-04  2.15603E-04  2.86573E-03  4.05176E+00  7.70397E-05  2.44358E-05 -2.65934E-05 -4.47311E-06  1.50000E+01
  2.03346E+01  1.98963E+01  1.99956E+01  2.34822E-01  1.27940E+00  4.18932E-05 -1.22559E+00 -4.45018E-04 -5.19456E-04 -5.35072E-06  2.49944E-03  4.17235E+00  4.30056E-05  2.24986E-05 -2.11111E-05  1.13449E-07  1.50000E+01
  2.03654E+01  1.98675E+01  1.99937E+01  2.43601E-01  1.28621E+00 -5.35223E-06 -1.23997E+00 -4.28384E-04 -5.00941E-04 -7.32561E-06  2.64456E-03  4.07653E+00  5.95137E-05  2.22678E-05 -2.09207E-05  2.84555E-07  1.50000E+01
  2.03500E+01  1.98823E+01  1.99806E+01  2.39580E-01  1.28368E+00 -1.17060E-04 -1.23375E+00 -4.36416E-04 -5.09251E-04 -2.47011E-05  2.55969E-03  4.11361E+00  2.31837E-05  2.22975E-05 -2.09881E-05  6.84268E-07  1.50000E+01
  2.06890E+01  1.96750E+01  1.97743E+01 -1.35738E-01  6.55905E-01 -1.67469E-01 -1.38705E+00 -1.23300E-04 -5.27327E-04 -7.28398E-05 -1.71647E-02  2.04791E+00 -1.45103E-02  2.97873E-05 -1.06267E-05  8.23665E-06  1.50000E+01
  2.07095E+01  1.96711E+01  1.97611E+01 -1.57400E-01  6.07237E-01 -1.86973E-01 -1.07686E+00 -7.00624E-05 -3.67602E-04 -4.58538E-05 -1.66308E-02  1.89278E+00 -1.45552E-02  2.93316E-05 -9.33980E-06  7.42611E-06  1.50000E+01
  2.06919E+01  1.96792E+01  1.97464E+01 -1.04353E-01  7.55425E-01 -1.73668E-01 -1.01624E+00 -1.25570E-04 -4.75279E-04 -8.05335E-05 -1.40624E-02  2.37159E+00 -1.41531E-02  3.13621E-05 -1.36796E-05  1.19842E-05  1.50000E+01
  2.04171E+01  1.98346E+01  2.01124E+01  2.50092E-01  1.29685E+00 -3.89846E-04 -1.27722E+00 -3.97056E-04 -4.63415E-04  1.19787E-04  3.71479E-03  3.71945E+00 -2.57330E-04  2.26967E-05 -2.27134E-05 -3.81527E-06  1.50000E+01
  2.01217E+01  2.01573E+01  2.01915E+01  6.90171E-02  1.13684E+00 -2.12920E-04 -1.05099E+00 -3.91467E-04 -5.04903E-04  3.35533E-04  2.15802E-03  3.57022E+00 -5.70808E-04  4.40226E-05 -4.23544E-05 -1.65146E-06  1.50000E+01
  2.01086E+01  2.01774E+01  2.02020E+01  5.26802E-02  1.12288E+00 -2.07050E-04 -1.10802E+00 -3.79822E-04 -5.22064E-04  3.59164E-04  1.82845E-03  3.52744E+00 -7.15838E-04  5.95999E-05 -5.56843E-05 -6.24649E-07  1.50000E+01
  2.01280E+01  2.01695E+01  2.02149E+01  5.99861E-02  1.14121E+00 -1.39460E-04 -1.09111E+00 -3.50365E-04 -4.74784E-04  3.45554E-04  1.63391E-03  3.59426E+00 -6.05390E-04  5.65251E-05 -5.52632E-05 -1.82399E-06  1.50000E+01
  2.07508E+01  1.96639E+01  1.97353E+01 -1.91412E-01  5.40049E-01 -2.23229E-01  1.10377E-01  3.48087E-05 -1.93567E-05  4.29524E-06 -1.30880E-02  1.68428E+00 -1.20765E-02  3.70475E-05 -1.01332E-05  6.28268E-06  1.50000E+01
  2.07716E+01  1.96602E+01  1.97226E+01 -2.05994E-01  5.20062E-01 -2.41443E-01  5.20833E-01  3.04993E-05  3.47337E-05  8.04969E-06 -6.71312E-02  6.52102E-01 -3.35069E-02  1.82261E-05 -5.12610E-06  3.37811E-06  1.50000E+01
  2.07537E+01  1.96671E+01  1.97076E+01 -1.59552E-01  6.61272E-01 -2.32109E-01  2.25702E-01  1.55727E-05 -8.78854E-05 -5.87320E-06 -1.22224E-02  2.07475E+00 -1.35820E-02  3.67073E-05 -1.23664E-05  9.13187E-06  1.50000E+01
  2.06953E+01  1.96844E+01  1.97186E+01 -6.93515E-02  8.56684E-01 -1.74692E-01 -8.05806E-01 -1.15672E-04 -4.03731E-04 -8.14573E-05 -9.96621E-03  2.70035E+00 -1.25907E-02  3.47345E-05 -1.79685E-05  1.56661E-05  1.50000E+01
  2.07124E+01  1.96750E+01  1.97333E+01 -1.25942E-01  7.14922E-01 -1.94138E-01 -9.69785E-01 -7.72014E-05 -3.65325E-04 -5.52561E-05 -1.44684E-02  2.24197E+00 -1.48910E-02  3.42115E-05 -1.34183E-05  1.14885E-05  1.50000E+01
  2.03348E+01  1.98975E+01  1.99673E+01  2.34544E-01  1.28006E+00 -2.99246E-04 -1.22976E+00 -4.40675E-04 -5.14170E-04 -4.34845E-05  2.49965E-03  4.11731E+00 -2.82146E-05  2.27306E-05 -2.14778E-05  1.07331E-06  1.50000E+01
  2.03203E+01  1.99119E+01  2.00395E+01  2.28901E-01  1.27539E+00  5.84803E-04 -1.22165E+00 -4.63984E-04 -5.42288E-04  5.78592E-05  2.44588E-03  4.31967E+00  9.01032E-05  2.42420E-05 -2.29230E-05 -1.29109E-06  1.50000E+01
  2.03192E+01  1.99109E+01  2.00106E+01  2.29190E-01  1.27428E+00  2.28341E-04 -1.21597E+00 -4.52340E-04 -5.28941E-04  1.56750E-05  2.46121E-03  4.21589E+00  4.58814E-05  2.30999E-05 -2.16559E-05 -3.68875E-07  1.50000E+01
  2.07296E+01  1.97013E+01  1.96245E+01  2.98452E-02  1.13624E+00 -1.69269E-01 -4.86623E-01 -6.23836E-05 -2.19523E-04 -6.58937E-05  1.31677E-03  3.60181E+00 -5.39810E-03  3.53409E-05 -2.65990E-05  1.91529E-05  1.50000E+01
  2.06551E+01  1.96947E+01  1.97454E+01 -1.65556E-02  9.38953E-01 -1.29724E-01 -1.19647E+00 -2.12946E-04 -5.34757E-04 -1.30778E-04 -3.58701E-03  2.96445E+00 -7.12391E-03  3.25256E-05 -2.05465E-05  1.60793E-05  1.50000E+01
  2.06717E+01  1.96838E+01  1.97597E+01 -7.87097E-02  8.03792E-01 -1.51940E-01 -1.09610E+00 -1.54396E-04 -5.04902E-04 -9.21210E-05 -1.20208E-02  2.52745E+00 -1.22098E-02  3.09768E-05 -1.52031E-05  1.34493E-05  1.50000E+01
  2.03054E+01  1.99279E+01  2.00542E+01  2.22024E-01  1.26999E+00  7.91971E-04 -1.22046E+00 -4.63430E-04 -5.42434E-04  8.10427E-05  2.42944E-03  4.29535E+00  7.85376E-05  2.45585E-05 -2.33204E-05 -1.52982E-06  1.50000E+01
  2.02888E+01  1.99415E+01  2.00400E+01  2.15364E-01  1.26173E+00  6.31434E-04 -1.20181E+00 -4.53899E-04 -5.34371E-04  6.02258E-05  2.44545E-03  4.18609E+00  5.01786E-05  2.39678E-05 -2.24959E-05 -1.13065E-06  1.50000E+01
  2.02906E+01  1.99444E+01  2.00684E+01  2.14238E-01  1.26376E+00  9.87773E-04 -1.21210E+00 -4.57478E-04 -5.36977E-04  1.03277E-04  2.45355E-03  4.22662E+00  9.19865E-05  2.47759E-05 -2.35948E-05 -1.60653E-06  1.50000E+01
  2.04147E+01  1.98304E+01  2.00861E+01  2.49553E-01  1.29197E+00 -1.44531E-04 -1.30699E+00 -3.96613E-04 -4.67119E-04  9.13958E-05  3.73603E-03  3.71057E+00 -1.13249E-04  2.25020E-05 -2.19290E-05 -3.40708E-06  1.50000E+01
  2.04128E+01  1.98274E+01  2.00595E+01  2.49044E-01  1.28830E+00 -2.85664E-05 -1.32663E+00 -3.94409E-04 -4.68272E-04  6.22712E-05  3.71756E-03  3.77632E+00 -3.07277E-05  2.27380E-05 -2.16641E-05 -2.80728E-06  1.50000E+01
  2.04260E+01  1.98113E+01  2.00181E+01  2.46937E-01  1.28077E+00 -6.12002E-05 -1.27748E+00 -3.84612E-04 -4.67305E-04  1.74928E-05  4.33550E-03  3.85340E+00 -7.82335E-05  2.39538E-05 -2.20642E-05 -1.21200E-06  1.50000E+01
  2.04108E+01  1.98250E+01  2.00050E+01  2.48418E-01  1.28495E+00 -9.89958E-05 -1.27065E+00 -3.94561E-04 -4.71559E-04  4.71663E-06  3.61461E-03  3.89384E+00 -4.50188E-05  2.28105E-05 -2.11679E-05 -2.60982E-07  1.50000E+01
  2.07157E+01  1.96799E+01  1.97056E+01 -9.02847E-02  8.24661E-01 -1.95724E-01 -6.95319E-01 -8.25072E-05 -3.46548E-04 -6.35724E-05 -1.11039E-02  2.59804E+00 -1.39622E-02  3.65562E-05 -1.71926E-05  1.47735E-05  1.50000E+01
  2.07197E+01  1.96859E+01  1.96782E+01 -5.14839E-02  9.33263E-01 -1.91729E-01 -5.40778E-01 -9.68988E-05 -3.43435E-04 -7.93995E-05 -6.99232E-03  2.94983E+00 -1.18537E-02  3.48491E-05 -1.96816E-05  1.68444E-05  1.50000E+01
  2.06441E+01  1.97154E+01  1.97043E+01  7.60181E-02  1.12221E+00 -9.83665E-02 -9.14446E-01 -2.37199E-04 -4.60423E-04 -1.62474E-04  7.98021E-03  3.55050E+00  1.06761E-03  3.12992E-05 -2.65377E-05  1.61139E-05  1.50000E+01
  2.03143E+01  1.99436E+01  2.01393E+01  2.16478E-01  1.28100E+00  1.35306E-03 -1.26734E+00 -4.63214E-04 -5.29529E-04  2.03486E-04  2.49539E-03  4.27367E+00  1.15906E-04  2.67298E-05 -2.73886E-05 -3.31620E-06  1.50000E+01
  2.03007E+01  1.99624E+01  2.01518E+01  2.06881E-01  1.27568E+00  1.49353E-03 -1.25269E+00 -4.55002E-04 -5.19229E-04  2.23170E-04  2.47874E-03  4.19697E+00  1.02078E-04  2.68557E-05 -2.76478E-05 -3.01830E-06  1.50000E+01
  2.03186E+01  1.99517E+01  2.01664E+01  2.13338E-01  1.28658E+00  1.32089E-03 -1.26954E+00 -4.56891E-04 -5.14962E-04  2.37938E-04  2.54025E-03  4.21712E+00  7.73743E-05  2.67331E-05 -2.81764E-05 -3.38042E-06  1.50000E+01
  2.07330E+01  1.96710E+01  1.97203E+01 -1.44058E-01  6.83474E-01 -2.13460E-01 -6.65039E-01 -2.44131E-05 -2.07545E-04 -2.71028E-05 -1.36889E-02  2.14280E+00 -1.45778E-02  3.57934E-05 -1.26006E-05  9.41498E-06  1.50000E+01
  2.06689E+01  1.97179E+01  1.96638E+01  8.38318E-02  1.17011E+00 -1.10239E-01 -8.64374E-01 -1.90154E-04 -3.82185E-04 -1.49274E-04  7.75467E-03  3.70556E+00  1.30217E-03  3.09998E-05 -2.72549E-05  1.59209E-05  1.50000E+01
  2.06493E+01  1.97242E+01  1.96774E+01  1.05533E-01  1.18669E+00 -9.06433E-02 -8.92446E-01 -2.25661E-04 -4.11457E-04 -1.68148E-04  1.01265E-02  3.75469E+00  3.25018E-03  3.03604E-05 -2.80170E-05  1.51305E-05  1.50000E+01
  2.03849E+01  1.99020E+01  2.01989E+01  2.38373E-01  1.31740E+00 -4.34019E-04 -1.31639E+00 -4.43549E-04 -4.86367E-04  2.47553E-04  3.01437E-03  4.09834E+00 -2.36958E-05  2.48960E-05 -2.80774E-05 -4.81494E-06  1.50000E+01
  2.03977E+01  1.98831E+01  2.01875E+01  2.44384E-01  1.31658E+00 -7.55289E-04 -1.32524E+00 -4.33213E-04 -4.79101E-04  2.23566E-04  3.19892E-03  4.01878E+00 -5.96016E-05  2.42468E-05 -2.69790E-05 -4.87376E-06  1.50000E+01
  2.03723E+01  1.99215E+01  2.02102E+01  2.30785E-01  1.31690E+00 -1.02401E-04 -1.30911E+00 -4.51700E-04 -4.92323E-04  2.71894E-04  2.86723E-03  4.15793E+00 -2.92037E-05  2.59145E-05 -2.95542E-05 -4.73327E-06  1.50000E+01
  2.03656E+01  1.98687E+01  1.99657E+01  2.43453E-01  1.28706E+00 -2.26595E-04 -1.24626E+00 -4.28702E-04 -5.01371E-04 -4.22966E-05  2.66818E-03  4.06211E+00 -1.69235E-05  2.26526E-05 -2.14389E-05  1.37724E-06  1.50000E+01
  2.07038E+01  1.96980E+01  1.96640E+01  6.84728E-03  1.05301E+00 -1.62247E-01 -7.73872E-01 -1.35098E-04 -3.71272E-04 -1.10593E-04 -8.83390E-04  3.33517E+00 -6.72942E-03  3.36850E-05 -2.38088E-05  1.80355E-05  1.50000E+01
  2.07091E+01  1.97064E+01  1.96373E+01  4.52643E-02  1.14361E+00 -1.50245E-01 -6.23558E-01 -1.09818E-04 -2.93382E-04 -9.94256E-05  2.89963E-03  3.62443E+00 -3.37447E-03  3.35478E-05 -2.68967E-05  1.86887E-05  1.50000E+01
  2.06889E+01  1.97119E+01  1.96504E+01  6.34635E-02  1.15532E+00 -1.30351E-01 -9.21950E-01 -1.50533E-04 -3.42718E-04 -1.26098E-04  5.16732E-03  3.66099E+00 -1.03662E-03  3.22052E-05 -2.68927E-05  1.68664E-05  1.50000E+01
  2.06300E+01  1.97310E+01  1.96913E+01  1.27667E-01  1.20389E+00 -7.22344E-02 -1.09707E+00 -2.56359E-04 -4.28842E-04 -1.80873E-04  1.20042E-02  3.80569E+00  4.67097E-03  3.00486E-05 -2.85418E-05  1.36198E-05  1.50000E+01
  2.04332E+01  1.98233E+01  2.01261E+01  2.50134E-01  1.29652E+00 -5.50799E-04 -1.27604E+00 -4.02512E-04 -4.72861E-04  1.33099E-04  4.43143E-03  3.81919E+00 -5.22089E-04  2.36408E-05 -2.39256E-05 -4.72816E-06  1.50000E+01
  2.04199E+01  1.98401E+01  2.01384E+01  2.50602E-01  1.30289E+00 -7.33240E-04 -1.28986E+00 -4.09994E-04 -4.72073E-04  1.52149E-04  3.71092E-03  3.80093E+00 -4.10904E-04  2.31855E-05 -2.39225E-05 -4.26091E-06  1.50000E+01
  2.03107E+01  1.99368E+01  2.01115E+01  2.18966E-01  1.27636E+00  1.27837E-03 -1.24962E+00 -4.71965E-04 -5.45171E-04  1.67155E-04  2.47059E-03  4.33812E+00  1.45298E-04  2.63762E-05 -2.62606E-05 -2.93362E-06  1.50000E+01
  2.02933E+01  1.99489E+01  2.00967E+01  2.12467E-01  1.26679E+00  1.26425E-03 -1.24027E+00 -4.61749E-04 -5.38230E-04  1.46446E-04  2.45986E-03  4.24115E+00  1.23185E-04  2.57688E-05 -2.50977E-05 -2.20537E-06  1.50000E+01
  2.01150E+01  2.01903E+01  2.02248E+01  4.30313E-02  1.12695E+00  0.00000E+00 -2.91499E-01 -1.31985E-04 -2.01112E-04  1.43840E-04  9.83488E+00 -4.40029E+01 -4.05854E+01  3.42161E-05 -3.15735E-05  4.77811E-07  1.50000E+01
  2.07780E+01  1.96675E+01  1.96676E+01 -1.34979E-01  7.77659E-01 -2.53154E-01  2.54816E-01  1.12309E-05 -3.22742E-05  2.80542E-07 -7.11590E-02  1.08972E+00 -4.88830E-02  1.99707E-05 -8.45632E-06  7.29372E-06  1.50000E+01
  2.07612E+01  1.96771E+01  1.96529E+01 -8.10369E-02  9.08110E-01 -2.30247E-01 -2.51986E-01 -1.20754E-05 -1.64308E-04 -2.42087E-05 -6.72193E-03  2.87125E+00 -1.28877E-02  4.19696E-05 -2.11181E-05  1.80295E-05  1.50000E+01
  2.06551E+01  1.97339E+01  1.96511E+01  1.33099E-01  1.24734E+00 -8.16588E-02 -8.71507E-01 -2.23556E-04 -3.81854E-04 -1.81135E-04  1.12452E-02  3.94676E+00  4.92268E-03  2.99232E-05 -2.92552E-05  1.32331E-05  1.50000E+01
  2.06357E+01  1.97407E+01  1.96649E+01  1.51745E-01  1.25696E+00 -6.49647E-02 -9.32384E-01 -2.58104E-04 -4.05258E-04 -1.98166E-04  1.24956E-02  3.97283E+00  5.85529E-03  2.94898E-05 -2.95030E-05  1.18342E-05  1.50000E+01
  2.03191E+01  1.99113E+01  1.99821E+01  2.29074E-01  1.27433E+00 -1.53971E-04 -1.21678E+00 -4.45385E-04 -5.20497E-04 -2.42844E-05  2.46751E-03  4.14371E+00 -1.21407E-05  2.27007E-05 -2.13005E-05  5.97381E-07  1.50000E+01
  2.04233E+01  1.98468E+01  2.01645E+01  2.51008E-01  1.31012E+00 -1.15611E-03 -1.29135E+00 -4.20750E-04 -4.77153E-04  1.84127E-04  3.81248E-03  3.89642E+00 -4.50657E-04  2.36531E-05 -2.52265E-05 -4.64370E-06  1.50000E+01
  2.03365E+01  1.99414E+01  2.01811E+01  2.19477E-01  1.29710E+00  1.00043E-03 -1.29607E+00 -4.55581E-04 -5.07457E-04  2.50183E-04  2.60616E-03  4.20802E+00  4.27733E-05  2.64752E-05 -2.87051E-05 -3.93594E-06  1.50000E+01
  2.03544E+01  1.99313E+01  2.01957E+01  2.25290E-01  1.30722E+00  5.31062E-04 -1.30865E+00 -4.52714E-04 -4.98712E-04  2.60932E-04  2.69427E-03  4.18064E+00  2.23197E-05  2.63675E-05 -2.93458E-05 -4.40665E-06  1.50000E+01
  2.01348E+01  2.01375E+01  2.01806E+01  8.47930E-02  1.15010E+00 -1.01349E-04 -9.74615E-01 -3.60657E-04 -4.59118E-04  2.83566E-04  2.20236E-03  3.62075E+00 -4.39170E-04  3.76425E-05 -3.46342E-05  7.71931E-07  1.50000E+01
  2.01160E+01  2.01465E+01  2.01675E+01  7.69868E-02  1.13273E+00 -2.08827E-04 -9.66627E-01 -3.69119E-04 -4.76743E-04  2.71560E-04  2.51214E-03  3.54393E+00 -4.80426E-04  3.82606E-05 -3.56970E-05 -8.07979E-07  1.50000E+01
  2.07151E+01  1.97159E+01  1.96112E+01  8.21356E-02  1.22730E+00 -1.35768E-01 -5.32426E-01 -1.04670E-04 -2.61908E-04 -1.05498E-04  5.65601E-03  3.89061E+00 -3.74678E-04  3.29297E-05 -2.89143E-05  1.74053E-05  1.50000E+01
  2.02725E+01  1.99553E+01  2.00260E+01  2.08158E-01  1.25292E+00  4.26883E-04 -1.19615E+00 -4.49600E-04 -5.32342E-04  3.98966E-05  2.44530E-03  4.10398E+00  2.39399E-05  2.36771E-05 -2.20025E-05 -7.76963E-07  1.50000E+01
  2.02738E+01  1.99574E+01  2.00542E+01  2.07219E-01  1.25438E+00  8.14410E-04 -1.20169E+00 -4.50028E-04 -5.32257E-04  8.28089E-05  2.46644E-03  4.13411E+00  6.10591E-05  2.45047E-05 -2.30403E-05 -1.38996E-06  1.50000E+01
  2.04306E+01  1.98185E+01  2.00995E+01  2.49091E-01  1.29054E+00 -2.22994E-04 -1.28916E+00 -3.99830E-04 -4.75379E-04  1.03962E-04  4.45794E-03  3.78663E+00 -3.69344E-04  2.36022E-05 -2.32243E-05 -4.52539E-06  1.50000E+01
  2.04285E+01  1.98149E+01  2.00727E+01  2.48148E-01  1.28588E+00 -3.69880E-05 -1.31182E+00 -3.99513E-04 -4.79283E-04  7.55907E-05  4.44912E-03  3.79008E+00 -2.28409E-04  2.37229E-05 -2.27035E-05 -3.84381E-06  1.50000E+01
  2.03054E+01  1.99711E+01  2.01784E+01  2.03030E-01  1.28150E+00  1.44696E-03 -1.25982E+00 -4.55997E-04 -5.12680E-04  2.60619E-04  2.44843E-03  4.17810E+00  4.78029E-05  2.71159E-05 -2.87136E-05 -3.10057E-06  1.50000E+01
  2.02924E+01  1.99909E+01  2.01903E+01  1.91701E-01  1.27562E+00  1.49486E-03 -1.24922E+00 -4.53261E-04 -5.09521E-04  2.82740E-04  2.34476E-03  4.13788E+00  3.84692E-06  2.79994E-05 -2.96657E-05 -2.71754E-06  1.50000E+01
  2.03107E+01  1.99811E+01  2.02044E+01  1.98470E-01  1.28820E+00  1.31424E-03 -1.26960E+00 -4.57206E-04 -5.06596E-04  2.96594E-04  2.40320E-03  4.16988E+00 -8.66124E-06  2.79750E-05 -3.04409E-05 -3.13603E-06  1.50000E+01
  2.06167E+01  1.97479E+01  1.96789E+01  1.69911E-01  1.26672E+00 -4.98691E-02 -1.02918E+00 -2.88568E-04 -4.23810E-04 -2.11017E-04  1.31481E-02  3.99974E+00  6.27786E-03  2.91537E-05 -2.99357E-05  1.08662E-05  1.50000E+01
  2.03039E+01  1.99259E+01  2.00255E+01  2.22696E-01  1.26838E+00  4.28816E-04 -1.21090E+00 -4.55829E-04 -5.34250E-04  3.77897E-05  2.44894E-03  4.21984E+00  4.27432E-05  2.34773E-05 -2.20089E-05 -8.00122E-07  1.50000E+01
  2.03034E+01  1.99255E+01  1.99969E+01  2.22848E-01  1.26787E+00  2.75567E-05 -1.20903E+00 -4.49215E-04 -5.26202E-04 -3.79660E-06  2.44738E-03  4.15404E+00 -1.21877E-06  2.26979E-05 -2.11957E-05  1.10686E-07  1.50000E+01
  2.04269E+01  1.98125E+01  2.00456E+01  2.47397E-01  1.28259E+00  4.99937E-06 -1.34045E+00 -3.88158E-04 -4.69926E-04  4.56230E-05  4.38093E-03  3.81914E+00 -1.27350E-04  2.39754E-05 -2.24105E-05 -2.75191E-06  1.50000E+01
  2.06948E+01  1.97215E+01  1.96242E+01  9.74815E-02  1.23155E+00 -1.17734E-01 -6.62197E-01 -1.51013E-04 -3.18057E-04 -1.38718E-04  7.48971E-03  3.90222E+00  1.60410E-03  3.22357E-05 -2.90375E-05  1.55674E-05  1.50000E+01
  2.06748E+01  1.97275E+01  1.96375E+01  1.14730E-01  1.23856E+00 -9.94637E-02 -8.27094E-01 -1.89275E-04 -3.54998E-04 -1.62496E-04  9.45608E-03  3.92257E+00  3.43307E-03  3.14142E-05 -2.91610E-05  1.38903E-05  1.50000E+01
  2.02967E+01  1.99549E+01  2.01245E+01  2.10023E-01  1.27078E+00  1.43567E-03 -1.23702E+00 -4.59040E-04 -5.30736E-04  1.86098E-04  2.48038E-03  4.22468E+00  1.30222E-04  2.66019E-05 -2.66574E-05 -2.86542E-06  1.50000E+01
  2.02791E+01  1.99665E+01  2.01100E+01  2.03217E-01  1.26016E+00  1.38456E-03 -1.22460E+00 -4.53863E-04 -5.29921E-04  1.67769E-04  2.45217E-03  4.16000E+00  1.04430E-04  2.60806E-05 -2.55720E-05 -2.31681E-06  1.50000E+01
  2.04559E+01  1.97841E+01  1.99894E+01  2.36374E-01  1.26226E+00 -2.74393E-04 -1.42375E+00 -3.77080E-04 -4.81479E-04 -1.05582E-05  6.61520E-03  3.84006E+00  9.49664E-05  2.73537E-05 -2.43475E-05  6.63290E-07  1.50000E+01
  2.04409E+01  1.97980E+01  1.99760E+01  2.43189E-01  1.27367E+00 -2.99649E-04 -1.35408E+00 -3.83841E-04 -4.76198E-04 -2.39769E-05  5.28036E-03  3.88241E+00  1.05559E-04  2.55958E-05 -2.33034E-05  1.59790E-06  1.50000E+01
  2.04408E+01  1.97974E+01  2.00038E+01  2.43017E-01  1.27310E+00 -9.94726E-05 -1.29627E+00 -3.78678E-04 -4.70326E-04  3.04761E-06  5.29702E-03  3.85226E+00 -2.82126E-05  2.55153E-05 -2.31141E-05 -3.11101E-07  1.50000E+01
  2.07014E+01  1.97321E+01  1.95984E+01  1.28927E-01  1.30148E+00 -1.04091E-01 -7.99244E-01 -1.61753E-04 -3.15396E-04 -1.60871E-04  8.68469E-03  4.12311E+00  3.52360E-03  3.28902E-05 -3.09985E-05  1.36012E-05  1.50000E+01
  2.04401E+01  1.98364E+01  2.01787E+01  2.52132E-01  1.31229E+00 -1.56659E-03 -1.32046E+00 -4.15007E-04 -4.72301E-04  1.93138E-04  4.44838E-03  3.94008E+00 -7.53099E-04  2.41780E-05 -2.60962E-05 -5.12299E-06  1.50000E+01
  2.04364E+01  1.98293E+01  2.01525E+01  2.51188E-01  1.30377E+00 -1.00313E-03 -1.29399E+00 -4.14329E-04 -4.79056E-04  1.65440E-04  4.42810E-03  3.87589E+00 -6.66283E-04  2.39074E-05 -2.48877E-05 -4.74107E-06  1.50000E+01
  2.02761E+01  1.99612E+01  2.00822E+01  2.05577E-01  1.25680E+00  1.14279E-03 -1.21798E+00 -4.52232E-04 -5.31904E-04  1.25813E-04  2.46029E-03  4.15435E+00  9.07147E-05  2.51718E-05 -2.40737E-05 -1.74939E-06  1.50000E+01
  2.03290E+01  1.99714E+01  2.02185E+01  2.05043E-01  1.30050E+00  9.86703E-04 -1.29405E+00 -4.59158E-04 -5.01905E-04  3.08840E-04  2.48362E-03  4.19091E+00 -2.97882E-05  2.80509E-05 -3.13104E-05 -3.48338E-06  1.50000E+01
  2.03473E+01  1.99620E+01  2.02326E+01  2.11413E-01  1.31251E+00  5.02474E-04 -1.31171E+00 -4.59178E-04 -4.96031E-04  3.19023E-04  2.58709E-03  4.20444E+00 -6.33711E-05  2.82501E-05 -3.24667E-05 -4.02885E-06  1.50000E+01
  2.03416E+01  1.99512E+01  2.02072E+01  2.15774E-01  1.30434E+00  7.86673E-04 -1.29611E+00 -4.55426E-04 -4.99514E-04  2.84089E-04  2.60293E-03  4.19522E+00  2.09631E-06  2.71492E-05 -3.03225E-05 -4.01575E-06  1.50000E+01
  2.00974E+01  2.01558E+01  2.01544E+01  6.88711E-02  1.11527E+00 -2.46040E-04 -9.48340E-01 -3.75645E-04 -4.92091E-04  2.53310E-04  2.89018E-03  3.45610E+00 -4.98081E-04  4.03767E-05 -3.74259E-05 -1.22874E-06  1.50000E+01
  2.00838E+01  2.01745E+01  2.01655E+01  5.35898E-02  1.10106E+00 -2.93942E-04 -1.09010E+00 -4.46255E-04 -5.90888E-04  3.33424E-04  2.80985E-03  3.38678E+00 -6.97851E-04  4.58708E-05 -4.24771E-05 -2.23674E-06  1.50000E+01