 TITLE="3D TRIANGULAR SURFACE DATA"
VARIABLES="X","Y","Z","U","V","W","P", "Fex", "Fey", "Fez","Finx","Finy","Finz","WSSx","WSSy","WSSz","AMForce"
 ZONE T="unstruc"N=        1757 E=        3355 F=FEPOINT  ET=TRIANGLE
  2.03575E+01  1.96702E+01  2.00955E+01 -4.48910E-01  4.17360E-01  6.81765E-02 -9.36441E-01 -3.97514E-05 -3.84926E-04  1.24774E-05 -5.41941E-02  1.68116E+00  1.79995E-02  5.57596E-05 -1.48309E-05 -4.46922E-06  1.50000E+01
  2.03795E+01  1.96658E+01  2.00950E+01 -4.81583E-01  2.68465E-01  7.00372E-02 -6.12828E-01  9.06846E-06 -1.15791E-04 -2.88744E-07 -7.67034E-03  4.89154E-01  4.28292E-03  2.51964E-05 -4.05373E-06 -1.24737E-06  1.50000E+01
  2.03746E+01  1.96663E+01  2.00743E+01 -4.86830E-01  2.57024E-01  5.69757E-02 -6.24490E-01  7.58431E-06 -2.17368E-04  4.12283E-07 -3.08727E-02  6.93980E-01  1.49875E-02  3.82681E-05 -5.95781E-06 -1.59577E-06  1.50000E+01
  2.03549E+01  1.96729E+01  2.01266E+01 -4.16134E-01  5.22918E-01  8.39212E-02 -9.20684E-01 -2.63396E-05 -2.50789E-04  1.15864E-05 -3.29956E-02  1.81955E+00  1.92253E-02  4.75521E-05 -1.59302E-05 -6.46336E-06  1.50000E+01
  2.03757E+01  1.96669E+01  2.01159E+01 -4.67251E-01  3.47757E-01  8.26574E-02 -6.23800E-01  7.89259E-06 -1.59105E-04  1.70851E-06 -3.29140E-02  9.58761E-01  4.30662E-03  3.78484E-05 -8.08275E-06 -2.81687E-06  1.50000E+01
  2.03952E+01  1.96638E+01  2.01061E+01 -4.95079E-01  1.99183E-01  7.75450E-02 -6.25983E-01  1.92892E-05 -1.41717E-04 -2.48471E-06 -1.79518E-02  4.45248E-01  9.26645E-03  3.28442E-05 -3.66747E-06 -1.22150E-06  1.50000E+01
  2.03947E+01  1.96640E+01  2.00828E+01 -5.02165E-01  1.51534E-01  6.05505E-02 -6.38487E-01  2.18639E-05 -1.54698E-04 -3.14274E-06 -1.50500E-02  3.24225E-01  1.08590E-03  3.27738E-05 -2.72189E-06 -1.08188E-06  1.50000E+01
  2.03719E+01  1.96665E+01  2.00481E+01 -4.92074E-01  2.34826E-01  3.71613E-02 -7.50142E-01  4.71672E-06 -2.84273E-04  2.55486E-07 -2.98283E-02  6.82397E-01  6.39966E-03  4.22927E-05 -5.96916E-06 -1.23799E-06  1.50000E+01
  2.03528E+01  1.96703E+01  2.00647E+01 -4.57293E-01  3.87645E-01  4.69087E-02 -1.16590E+00 -5.60983E-05 -4.63306E-04  9.72646E-06 -3.59217E-02  1.32994E+00  5.84346E-03  4.90008E-05 -1.17263E-05 -3.03897E-06  1.50000E+01
  2.03507E+01  1.96701E+01  2.00364E+01 -4.63719E-01  3.65582E-01  2.68184E-02 -1.48549E+00 -4.29865E-05 -4.25964E-04  5.19395E-06 -3.39187E-02  1.17370E+00  3.82532E-03  4.62233E-05 -1.02401E-05 -1.48293E-06  1.50000E+01
  2.03746E+01  1.96683E+01  2.01419E+01 -4.44274E-01  4.38612E-01  9.81270E-02 -8.74675E-01  1.81003E-06 -1.63342E-04  4.05688E-06 -3.39811E-02  1.32781E+00  1.51998E-02  4.01991E-05 -1.08772E-05 -4.60684E-06  1.50000E+01
  2.03945E+01  1.96639E+01  2.01301E+01 -4.84583E-01  2.70462E-01  9.38300E-02 -6.36086E-01  1.77976E-05 -1.50576E-04 -1.70497E-06 -3.06703E-02  7.23294E-01  9.75591E-03  3.78354E-05 -5.88285E-06 -2.24050E-06  1.50000E+01
  2.03133E+01  1.96862E+01  2.00964E+01 -3.28399E-01  7.27273E-01  4.89775E-02 -7.40028E-01 -7.18358E-05 -2.94308E-04  2.24987E-05 -1.31121E-02  2.60318E+00  8.09233E-03  5.02030E-05 -2.46925E-05 -7.80496E-06  1.50000E+01
  2.03118E+01  1.96840E+01  2.00675E+01 -3.49582E-01  6.83331E-01  3.67848E-02 -9.06537E-01 -1.09890E-04 -4.03387E-04  2.26448E-05 -1.87749E-02  2.40132E+00  6.67580E-03  4.94224E-05 -2.21548E-05 -5.52860E-06  1.50000E+01
  2.02934E+01  1.96947E+01  2.00821E+01 -2.76847E-01  8.23822E-01  3.33954E-02 -9.46448E-01 -1.23320E-04 -3.43396E-04  3.12567E-05 -2.27052E-03  2.84361E+00  3.99221E-03  4.69428E-05 -2.69488E-05 -6.62869E-06  1.50000E+01
  2.03344E+01  1.96787E+01  2.01109E+01 -3.77589E-01  6.20906E-01  6.66219E-02 -8.23149E-01 -5.62546E-05 -3.24196E-04  1.96641E-05 -2.77561E-02  2.34826E+00  1.43764E-02  5.30535E-05 -2.15574E-05 -7.70094E-06  1.50000E+01
  2.03150E+01  1.96895E+01  2.01250E+01 -2.99193E-01  7.84926E-01  5.68041E-02 -8.31913E-01 -6.76981E-05 -2.52591E-04  2.83002E-05 -5.59224E-03  2.74449E+00  7.47654E-03  4.79540E-05 -2.64346E-05 -8.77807E-06  1.50000E+01
  2.03351E+01  1.96820E+01  2.01397E+01 -3.43622E-01  6.99872E-01  7.53478E-02 -8.48571E-01 -3.50476E-05 -2.15102E-04  1.72838E-05 -1.72570E-02  2.40807E+00  1.34029E-02  4.74638E-05 -2.28906E-05 -9.73422E-06  1.50000E+01
  2.03330E+01  1.96767E+01  2.00813E+01 -4.01397E-01  5.59946E-01  5.20998E-02 -1.00280E+00 -8.63456E-05 -4.51709E-04  2.06781E-05 -3.16529E-02  2.11295E+00  1.07365E-02  5.32568E-05 -1.89436E-05 -5.81260E-06  1.50000E+01
  2.03311E+01  1.96758E+01  2.00521E+01 -4.14804E-01  5.24708E-01  3.43670E-02 -1.21518E+00 -9.91192E-05 -5.06869E-04  1.52384E-05 -3.19474E-02  1.80710E+00  6.12352E-03  4.96236E-05 -1.62981E-05 -3.35484E-06  1.50000E+01
  2.04139E+01  1.96627E+01  2.00937E+01 -5.11138E-01  7.30150E-02  6.55200E-02 -5.57494E-01  3.23766E-05 -1.48083E-04 -6.37262E-06 -1.35130E-02  1.41077E-01  3.02777E-03  3.66635E-05 -1.37858E-06 -1.52893E-06  1.50000E+01
  2.04132E+01  1.96634E+01  2.00692E+01 -5.15256E-01  3.61866E-02  4.81128E-02 -5.68129E-01  3.57221E-05 -1.57458E-04 -6.03169E-06 -1.15166E-02  4.13607E-02  2.57269E-04  3.74178E-05 -6.53680E-07 -1.53132E-06  1.50000E+01
  2.04142E+01  1.96619E+01  2.01181E+01 -5.05802E-01  1.25899E-01  8.34148E-02 -5.66753E-01  3.04938E-05 -1.49918E-04 -5.99230E-06 -1.79297E-02  2.94472E-01  6.62826E-03  3.88304E-05 -2.62790E-06 -1.27158E-06  1.50000E+01
  2.03927E+01  1.96644E+01  2.00586E+01 -5.08059E-01  1.23842E-01  4.40337E-02 -6.71000E-01  2.66919E-05 -1.94456E-04 -3.16431E-06 -2.20151E-02  3.00841E-01  4.91811E-03  3.80154E-05 -2.66384E-06 -1.08129E-06  1.50000E+01
  2.04122E+01  1.96640E+01  2.00441E+01 -5.18639E-01  1.25957E-02  3.12571E-02 -5.85376E-01  3.95967E-05 -1.70502E-04 -4.53751E-06 -1.26175E-02 -2.52753E-02  1.10540E-03  3.94270E-05 -2.07610E-07 -1.17054E-06  1.50000E+01
  2.03299E+01  1.96754E+01  2.00237E+01 -4.22071E-01  5.05435E-01  1.56677E-02 -1.29395E+00 -8.26597E-05 -4.56952E-04  6.56761E-06 -3.22802E-02  1.66736E+00  2.53643E-03  4.77573E-05 -1.49538E-05 -1.40502E-06  1.50000E+01
  2.03706E+01  1.96666E+01  2.00211E+01 -4.95308E-01  2.20088E-01  1.65998E-02 -8.43827E-01  8.50372E-06 -2.86691E-04 -6.25787E-08 -2.91993E-02  6.42153E-01  2.23834E-03  4.32872E-05 -5.68843E-06 -5.97796E-07  1.50000E+01
  2.03497E+01  1.96701E+01  2.00087E+01 -4.66759E-01  3.55721E-01  6.37534E-03 -1.81333E+00 -2.43302E-05 -3.51229E-04  9.85330E-07 -3.43567E-02  1.11368E+00  5.85735E-04  4.54595E-05 -9.74939E-06 -4.51031E-07  1.50000E+01
  2.03171E+01  1.96938E+01  2.01528E+01 -2.64306E-01  8.48690E-01  5.96261E-02 -9.43742E-01 -5.37975E-05 -2.01373E-04  2.92813E-05  1.76673E-03  2.85361E+00  5.35970E-03  4.44563E-05 -2.78386E-05 -8.55577E-06  1.50000E+01
  2.03367E+01  1.96861E+01  2.01671E+01 -3.05072E-01  7.79552E-01  7.83284E-02 -9.63288E-01 -2.93480E-05 -1.74366E-04  1.92402E-05 -7.85810E-03  2.56660E+00  1.06443E-02  4.47335E-05 -2.51161E-05 -9.73797E-06  1.50000E+01
  2.07472E+01  1.96376E+01  1.97105E+01 -5.25350E-01 -7.22289E-02 -5.58175E-02 -1.43702E-01  4.34613E-05 -1.29418E-04  3.98396E-05 -1.72125E-03 -2.35357E-01  3.31441E-03  4.46001E-05 -1.87445E-06 -4.09333E-06  1.50000E+01
  2.07260E+01  1.96417E+01  1.97225E+01 -5.26388E-01 -8.49392E-02 -5.65280E-02 -1.50260E-01  4.53288E-05 -1.19879E-04  3.52879E-05 -1.48712E-03 -2.76170E-01  3.54747E-03  4.46196E-05 -1.00719E-06 -3.53604E-06  1.50000E+01
  2.07462E+01  1.96459E+01  1.97351E+01 -5.29862E-01 -9.27497E-02 -4.69297E-02 -1.30798E-01  4.50400E-05 -1.03764E-04  2.92993E-05 -1.48551E-03 -2.97362E-01  2.63656E-03  4.46896E-05 -1.41533E-06 -4.52181E-06  1.50000E+01
  2.07250E+01  1.96496E+01  1.97472E+01 -5.30648E-01 -1.04394E-01 -4.75245E-02 -1.43944E-01  4.59684E-05 -1.01309E-04  2.74637E-05 -1.32421E-03 -3.34430E-01  2.75369E-03  4.42598E-05 -6.29445E-07 -4.14924E-06  1.50000E+01
  2.07453E+01  1.96539E+01  1.97598E+01 -5.33850E-01 -1.10508E-01 -3.91514E-02 -7.14510E-02  4.58134E-05 -7.21762E-05  1.70362E-05 -1.33324E-03 -3.51450E-01  2.16251E-03  4.42142E-05 -9.77456E-07 -5.02628E-06  1.50000E+01
  2.08108E+01  1.96229E+01  1.96756E+01 -5.18694E-01 -2.47826E-02 -5.48177E-02 -1.45512E-01  4.28007E-05 -1.14157E-04  3.63520E-05 -2.37274E-03 -8.42559E-02  2.86325E-03  4.78336E-05 -4.52510E-06 -5.88388E-06  1.50000E+01
  2.07896E+01  1.96281E+01  1.96871E+01 -5.21610E-01 -4.20808E-02 -5.49526E-02 -2.25615E-01  4.09368E-05 -1.48524E-04  4.88835E-05 -2.17110E-03 -1.39155E-01  2.94848E-03  4.60199E-05 -3.61651E-06 -5.20374E-06  1.50000E+01
  2.08098E+01  1.96322E+01  1.96999E+01 -5.24441E-01 -4.98874E-02 -4.63174E-02 -1.51020E-01  4.29839E-05 -9.55480E-05  2.84118E-05 -1.92921E-03 -1.62104E-01  2.54415E-03  4.61464E-05 -4.01999E-06 -6.25205E-06  1.50000E+01
  2.04144E+01  1.96613E+01  2.01430E+01 -4.97578E-01  1.95053E-01  1.01304E-01 -5.90924E-01  2.70660E-05 -1.59235E-04 -5.40199E-06 -2.61156E-02  5.13761E-01  8.97720E-03  4.15468E-05 -4.43227E-06 -1.68304E-06  1.50000E+01
  2.08089E+01  1.96413E+01  1.97242E+01 -5.29430E-01 -7.22069E-02 -3.86067E-02 -1.22170E-01  4.55182E-05 -6.61221E-05  1.60381E-05 -1.62379E-03 -2.31673E-01  2.34037E-03  4.69636E-05 -3.68707E-06 -6.86459E-06  1.50000E+01
  2.08301E+01  1.96363E+01  1.97126E+01 -5.26845E-01 -5.69816E-02 -3.91118E-02 -9.98836E-02  4.65072E-05 -5.97107E-05  1.35571E-05 -1.68206E-03 -1.83908E-01  2.45802E-03  4.83980E-05 -4.58320E-06 -7.52122E-06  1.50000E+01
  2.04323E+01  1.96647E+01  2.00302E+01 -5.22976E-01 -7.13700E-02  1.97987E-02 -4.56171E-01  4.56803E-05 -1.21219E-04 -3.45306E-06 -5.32897E-03 -2.72502E-01 -3.76632E-04  3.98704E-05  1.72719E-06 -1.10122E-06  1.50000E+01
  2.04116E+01  1.96643E+01  2.00184E+01 -5.20409E-01 -1.71185E-04  1.38587E-02 -6.02111E-01  4.21767E-05 -1.77991E-04 -2.02167E-06 -1.19496E-02 -6.60828E-02  7.40584E-04  4.08480E-05  4.47286E-08 -5.55996E-07  1.50000E+01
  2.03550E+01  1.96757E+01  2.01543E+01 -3.82079E-01  6.16090E-01  9.33536E-02 -1.12266E+00 -2.46876E-05 -2.04608E-04  1.38250E-05 -2.52156E-02  2.00334E+00  1.74142E-02  4.41770E-05 -1.83171E-05 -8.64353E-06  1.50000E+01
  2.03565E+01  1.96792E+01  2.01811E+01 -3.43332E-01  7.07370E-01  9.73479E-02 -9.02955E-01 -3.19408E-05 -1.99425E-04  1.94826E-05 -1.82097E-02  2.26189E+00  1.59831E-02  4.34460E-05 -2.15699E-05 -9.61748E-06  1.50000E+01
  2.03751E+01  1.96702E+01  2.01682E+01 -4.14743E-01  5.33738E-01  1.09612E-01 -1.14735E+00 -1.64822E-05 -1.90633E-04  1.05590E-05 -3.23296E-02  1.64639E+00  1.94632E-02  4.02742E-05 -1.38389E-05 -7.00071E-06  1.50000E+01
  2.03293E+01  1.96753E+01  1.99958E+01 -4.23618E-01  5.02339E-01 -3.39730E-03 -1.36440E+00 -7.57618E-05 -4.31891E-04 -7.07243E-07 -3.25504E-02  1.61900E+00 -1.04663E-03  4.69251E-05 -1.45686E-05  2.02811E-07  1.50000E+01
  2.03700E+01  1.96667E+01  1.99941E+01 -4.95916E-01  2.18594E-01 -4.02034E-03 -9.03959E-01  9.35344E-06 -2.85881E-04  3.46738E-08 -2.94812E-02  6.33127E-01 -6.68589E-04  4.33386E-05 -5.63686E-06  5.00925E-08  1.50000E+01
  2.03494E+01  1.96702E+01  1.99813E+01 -4.65502E-01  3.61938E-01 -1.40023E-02 -1.78877E+00 -2.24843E-05 -3.35343E-04 -1.69403E-06 -3.46511E-02  1.11819E+00 -2.71184E-03  4.48442E-05 -9.77331E-06  5.68739E-07  1.50000E+01
  2.07646E+01  1.96655E+01  1.97972E+01 -5.39910E-01 -1.30542E-01 -2.59052E-02 -7.20867E-02  4.55366E-05 -6.16831E-05  1.27297E-05 -1.18399E-03 -4.12765E-01  1.69155E-03  4.39892E-05 -3.71803E-07 -4.81832E-06  1.50000E+01
  2.07858E+01  1.96622E+01  1.97850E+01 -5.38967E-01 -1.20690E-01 -2.55915E-02 -6.64019E-02  4.60780E-05 -5.16632E-05  9.59247E-06 -1.21223E-03 -3.82682E-01  1.85959E-03  4.50872E-05 -1.30112E-06 -5.67204E-06  1.50000E+01
  2.07655E+01  1.96581E+01  1.97724E+01 -5.36609E-01 -1.15740E-01 -3.19050E-02 -5.45945E-02  4.60438E-05 -5.49653E-05  1.08031E-05 -1.28964E-03 -3.67023E-01  1.90474E-03  4.45987E-05 -1.20312E-06 -5.54913E-06  1.50000E+01
  2.04339E+01  1.96618E+01  2.01054E+01 -5.16154E-01  9.81147E-03  6.88204E-02 -4.80475E-01  3.96880E-05 -1.33962E-04 -9.63072E-06 -9.42706E-03 -3.24853E-02  1.09422E-03  3.89163E-05  3.42688E-08 -2.24376E-06  1.50000E+01
  2.01130E+01  1.99111E+01  2.01915E+01  5.31750E-03  1.24750E+00 -4.59486E-04 -4.33430E-01  5.48444E-05 -5.11720E-05 -9.78369E-06  2.09099E-03  3.91635E+00  4.88466E-05  4.77732E-05 -5.70516E-05 -4.14856E-06  1.50000E+01
  2.01021E+01  1.99321E+01  2.02020E+01  3.08161E-03  1.25202E+00 -1.69008E-04 -5.13708E-01  1.50638E-04  1.27409E-05 -7.78327E-05  1.54407E-03  3.93071E+00  3.36220E-04  5.87238E-05 -6.81883E-05 -2.36611E-06  1.50000E+01
  2.01206E+01  1.99224E+01  2.02149E+01  3.12451E-03  1.25113E+00 -2.16968E-04 -3.33170E-01  1.20170E-04 -2.53017E-05 -5.32152E-05  1.88505E-03  3.93832E+00  3.39725E-04  6.03224E-05 -7.38348E-05 -4.79076E-06  1.50000E+01
  2.08282E+01  1.96543E+01  1.97612E+01 -5.35862E-01 -9.78183E-02 -2.58195E-02 -2.43302E-02  4.86835E-05  1.87938E-05 -1.55100E-05 -1.25915E-03 -3.12217E-01  2.29896E-03  4.82330E-05 -3.33379E-06 -7.43510E-06  1.50000E+01
  2.08494E+01  1.96497E+01  1.97496E+01 -5.33633E-01 -8.45330E-02 -2.67098E-02  7.84917E-03  2.47434E-05  9.37006E-06 -8.07324E-06 -3.71333E-04 -1.28303E-01  5.20647E-03  2.47162E-05 -2.03872E-06 -3.92792E-06  1.50000E+01
  2.08292E+01  1.96455E+01  1.97369E+01 -5.31655E-01 -7.85310E-02 -3.21178E-02 -7.52362E-02  4.83865E-05 -1.53664E-05 -3.36473E-06 -1.43803E-03 -2.51572E-01  2.37391E-03  4.88568E-05 -4.05878E-06 -7.66323E-06  1.50000E+01
  2.07665E+01  1.96501E+01  1.97478E+01 -5.32864E-01 -9.89114E-02 -3.87419E-02 -1.00939E-01  4.56914E-05 -7.89546E-05  1.95935E-05 -1.43561E-03 -3.15092E-01  2.17172E-03  4.50864E-05 -1.92016E-06 -5.79917E-06  1.50000E+01
  2.07867E+01  1.96543E+01  1.97604E+01 -5.35432E-01 -1.04481E-01 -3.16483E-02 -6.32697E-02  4.64201E-05 -5.10028E-05  9.34897E-06 -1.34886E-03 -3.32209E-01  2.03023E-03  4.60792E-05 -2.26460E-06 -6.66678E-06  1.50000E+01
  2.03292E+01  1.96757E+01  1.99682E+01 -4.19129E-01  5.16252E-01 -2.20226E-02 -1.34335E+00 -7.30690E-05 -4.09922E-04 -7.39500E-06 -3.18565E-02  1.64425E+00 -4.36898E-03  4.63097E-05 -1.48421E-05  1.85596E-06  1.50000E+01
  2.03105E+01  1.96828E+01  2.00388E+01 -3.62656E-01  6.55794E-01  2.17813E-02 -1.04425E+00 -1.40946E-04 -4.92600E-04  1.67317E-05 -2.17445E-02  2.22792E+00  3.80401E-03  4.86599E-05 -2.04875E-05 -2.86946E-06  1.50000E+01
  2.03098E+01  1.96823E+01  2.00104E+01 -3.68449E-01  6.43968E-01  5.51812E-03 -1.06552E+00 -1.58007E-04 -5.40635E-04  5.47528E-06 -2.30413E-02  2.13379E+00  7.92991E-04  4.80175E-05 -1.96712E-05 -7.48792E-07  1.50000E+01
  2.07906E+01  1.96190E+01  1.96628E+01 -5.15527E-01 -1.52540E-02 -6.47121E-02 -1.97114E-01  3.98965E-05 -1.54696E-04  5.21309E-05 -2.72320E-03 -5.70588E-02  3.54250E-03  4.70355E-05 -4.04205E-06 -4.71414E-06  1.50000E+01
  2.07241E+01  1.96572E+01  1.97720E+01 -5.34438E-01 -1.21011E-01 -3.96805E-02 -5.55401E-02  4.58120E-05 -6.74577E-05  1.53961E-05 -1.22854E-03 -3.84431E-01  2.18687E-03  4.38552E-05 -1.41993E-07 -4.42466E-06  1.50000E+01
  2.07444E+01  1.96614E+01  1.97846E+01 -5.37384E-01 -1.25999E-01 -3.23192E-02 -5.03600E-02  4.58472E-05 -5.34644E-05  1.05635E-05 -1.22883E-03 -3.98782E-01  1.82144E-03  4.43598E-05 -3.35544E-07 -4.89699E-06  1.50000E+01
  2.02919E+01  1.96925E+01  2.00535E+01 -2.94437E-01  7.93205E-01  2.33835E-02 -1.16410E+00 -1.95990E-04 -4.97859E-04  3.16508E-05 -6.78331E-03  2.70538E+00  3.32605E-03  4.69741E-05 -2.51887E-05 -4.24257E-06  1.50000E+01
  2.02731E+01  1.97023E+01  2.00396E+01 -2.39461E-01  8.88521E-01  1.29668E-02 -1.04655E+00 -2.36462E-04 -5.03880E-04  2.84731E-05  2.87077E-03  2.97398E+00  1.21233E-03  4.52205E-05 -2.80042E-05 -3.40803E-06  1.50000E+01
  2.02744E+01  1.97042E+01  2.00679E+01 -2.26387E-01  9.08027E-01  2.08666E-02 -9.26734E-01 -1.55635E-04 -3.56007E-04  3.30310E-05  5.53156E-03  3.06480E+00  1.37321E-03  4.45102E-05 -2.89205E-05 -5.46794E-06  1.50000E+01
  2.04334E+01  1.96630E+01  2.00806E+01 -5.18876E-01 -2.90140E-02  5.16613E-02 -4.65328E-01  4.12191E-05 -1.26544E-04 -8.34732E-06 -6.73000E-03 -1.42851E-01 -3.89208E-04  3.80419E-05  8.41419E-07 -2.33248E-06  1.50000E+01
  2.04329E+01  1.96640E+01  2.00556E+01 -5.21164E-01 -5.55965E-02  3.54082E-02 -4.57540E-01  4.34417E-05 -1.22847E-04 -6.22408E-06 -5.37147E-03 -2.22298E-01 -1.11621E-03  3.87326E-05  1.37709E-06 -1.81911E-06  1.50000E+01
  2.04526E+01  1.96662E+01  2.00168E+01 -5.24777E-01 -1.29060E-01  1.02983E-02 -3.33986E-01  4.68055E-05 -7.26294E-05 -1.42317E-06 -1.25496E-03 -4.37013E-01 -5.08138E-04  4.03907E-05  3.08577E-06 -5.75111E-07  1.50000E+01
  2.04320E+01  1.96650E+01  2.00046E+01 -5.23907E-01 -7.71307E-02  4.18610E-03 -4.56356E-01  4.69867E-05 -1.22254E-04 -4.94393E-07 -5.07006E-03 -2.92969E-01  2.85892E-04  4.06943E-05  1.87376E-06 -1.63667E-07  1.50000E+01
  2.07877E+01  1.96459E+01  1.97359E+01 -5.31414E-01 -8.61673E-02 -3.85267E-02 -1.18822E-01  4.50520E-05 -8.00322E-05  2.08376E-05 -1.53373E-03 -2.75318E-01  2.23462E-03  4.59513E-05 -2.78070E-06 -6.27476E-06  1.50000E+01
  2.07886E+01  1.96372E+01  1.97115E+01 -5.26845E-01 -6.55036E-02 -4.62687E-02 -1.40944E-01  4.34045E-05 -1.13165E-04  3.41127E-05 -1.79695E-03 -2.11352E-01  2.52813E-03  4.59621E-05 -3.29989E-06 -5.96592E-06  1.50000E+01
  2.07048E+01  1.96453E+01  1.97346E+01 -5.27005E-01 -9.60192E-02 -5.74130E-02 -1.63291E-01  4.63226E-05 -1.28553E-04  3.72906E-05 -1.24995E-03 -3.12070E-01  3.80132E-03  4.39230E-05 -1.49643E-07 -2.87766E-06  1.50000E+01
  2.02977E+01  1.97024E+01  2.01384E+01 -2.22981E-01  9.13050E-01  4.26993E-02 -8.89861E-01 -8.49536E-05 -2.35877E-04  3.98501E-05  9.01894E-03  3.08188E+00  1.34896E-03  4.36856E-05 -3.00780E-05 -7.49117E-06  1.50000E+01
  2.02820E+01  1.97171E+01  2.01514E+01 -1.56820E-01  1.00839E+00  2.81210E-02 -8.80052E-01 -8.69284E-05 -2.03151E-04  4.75013E-05  1.61799E-02  3.34834E+00 -2.81728E-03  4.05295E-05 -3.26235E-05 -6.00280E-06  1.50000E+01
  2.03008E+01  1.97078E+01  2.01657E+01 -1.90389E-01  9.62976E-01  4.14918E-02 -8.68573E-01 -6.60243E-05 -1.87683E-04  4.05942E-05  1.38634E-02  3.19267E+00 -1.11663E-03  4.21074E-05 -3.17783E-05 -6.69658E-06  1.50000E+01
  2.08079E+01  1.96501E+01  1.97485E+01 -5.33797E-01 -9.21144E-02 -3.16688E-02 -8.60837E-02  4.69049E-05 -3.04379E-05  2.29830E-06 -1.40222E-03 -2.93905E-01  2.19897E-03  4.70644E-05 -3.15307E-06 -7.14368E-06  1.50000E+01
  2.07270E+01  1.96334E+01  1.96978E+01 -5.21559E-01 -6.17833E-02 -6.69737E-02 -1.81599E-01  4.35411E-05 -1.46189E-04  4.56228E-05 -1.77126E-03 -2.07368E-01  4.59939E-03  4.46296E-05 -1.57543E-06 -3.45352E-06  1.50000E+01
  2.07058E+01  1.96374E+01  1.97098E+01 -5.22453E-01 -7.33845E-02 -6.81082E-02 -1.87580E-01  4.49205E-05 -1.37990E-04  4.21509E-05 -1.45406E-03 -2.45416E-01  4.97517E-03  4.40446E-05 -5.27850E-07 -2.25706E-06  1.50000E+01
  2.03766E+01  1.96729E+01  2.01945E+01 -3.77878E-01  6.33583E-01  1.15554E-01 -9.80741E-01 -2.15250E-05 -1.82643E-04  1.43968E-05 -2.77721E-02  1.98082E+00  2.07931E-02  4.17530E-05 -1.79439E-05 -8.97130E-06  1.50000E+01
  2.03954E+01  1.96654E+01  2.01814E+01 -4.41665E-01  4.53331E-01  1.23631E-01 -6.18477E-01  3.04247E-06 -1.54376E-04  1.81358E-06 -3.67119E-02  1.35973E+00  2.09199E-02  3.92039E-05 -1.09377E-05 -6.69923E-06  1.50000E+01
  2.03589E+01  1.96835E+01  2.02074E+01 -2.99009E-01  7.98125E-01  9.52885E-02 -7.81593E-01 -2.90521E-05 -1.69254E-04  2.35571E-05 -7.93110E-03  2.55575E+00  1.24061E-02  4.41301E-05 -2.57737E-05 -9.54202E-06  1.50000E+01
  2.03698E+01  1.96667E+01  1.99672E+01 -4.93393E-01  2.33207E-01 -2.44502E-02 -1.14922E+00  7.04577E-06 -2.83430E-04 -1.39418E-07 -3.00567E-02  6.77585E-01 -3.11629E-03  4.30543E-05 -5.96072E-06  6.66225E-07  1.50000E+01
  2.07684E+01  1.96331E+01  1.96987E+01 -5.23793E-01 -5.79219E-02 -5.52912E-02 -2.06970E-01  4.16072E-05 -1.60936E-04  5.23123E-05 -1.95273E-03 -1.89611E-01  3.09929E-03  4.53132E-05 -2.79639E-06 -4.78622E-06  1.50000E+01
  2.07694E+01  1.96241E+01  1.96743E+01 -5.18220E-01 -3.25954E-02 -6.53233E-02 -2.51916E-01  3.93492E-05 -1.86568E-04  6.33966E-05 -2.41238E-03 -1.12727E-01  3.84128E-03  4.57920E-05 -3.08183E-06 -3.87036E-06  1.50000E+01
  2.07482E+01  1.96290E+01  1.96860E+01 -5.20189E-01 -4.81504E-02 -6.60583E-02 -2.49467E-01  4.11551E-05 -1.71615E-04  5.66590E-05 -2.09573E-03 -1.63007E-01  4.20953E-03  4.49511E-05 -2.24031E-06 -3.42890E-06  1.50000E+01
  2.06846E+01  1.96410E+01  1.97220E+01 -5.22978E-01 -8.28930E-02 -6.94738E-02 -1.74159E-01  4.67515E-05 -1.38153E-04  4.12415E-05 -1.15111E-03 -2.77090E-01  5.33360E-03  4.40524E-05  2.43176E-07 -1.68818E-06  1.50000E+01
  2.04544E+01  1.96614E+01  2.01175E+01 -5.18725E-01 -3.77132E-02  7.04645E-02 -4.19429E-01  4.42698E-05 -1.16184E-04 -1.18094E-05 -5.46220E-03 -1.68748E-01 -1.35382E-03  4.04636E-05  1.24472E-06 -2.60238E-06  1.50000E+01
  2.04344E+01  1.96605E+01  2.01303E+01 -5.12363E-01  6.23091E-02  8.68542E-02 -5.25590E-01  3.88878E-05 -1.47204E-04 -9.88181E-06 -1.38874E-02  1.19302E-01  3.24721E-03  4.20626E-05 -1.23003E-06 -1.45806E-06  1.50000E+01
  2.02953E+01  1.96980E+01  2.01105E+01 -2.52531E-01  8.65101E-01  4.00352E-02 -8.09899E-01 -8.99923E-05 -2.63496E-04  3.34260E-05  3.19207E-03  2.97288E+00  3.28074E-03  4.55138E-05 -2.84646E-05 -7.50148E-06  1.50000E+01
  2.02763E+01  1.97074E+01  2.00961E+01 -2.07285E-01  9.36390E-01  2.62934E-02 -8.94682E-01 -1.13175E-04 -2.71331E-04  3.64264E-05  9.19064E-03  3.16501E+00  6.43320E-04  4.31558E-05 -2.98475E-05 -6.17890E-06  1.50000E+01
  2.01100E+01  1.99440E+01  2.02248E+01 -7.19563E-06  1.25599E+00  0.00000E+00 -2.96730E-02  1.30840E-04  4.14273E-05 -7.66676E-05  3.03390E+00 -3.94713E+01 -3.76917E+01  3.59209E-05 -4.04829E-05  5.48808E-07  1.50000E+01
  2.08513E+01  1.96311E+01  1.97012E+01 -5.23611E-01 -4.04855E-02 -4.02063E-02 -9.15068E-02  2.29783E-05 -3.12634E-05  7.41355E-06  1.15240E-04 -5.74204E-02  5.84975E-03  2.41666E-05 -2.54469E-06 -3.85747E-06  1.50000E+01
  2.08311E+01  1.96269E+01  1.96884E+01 -5.21327E-01 -3.29654E-02 -4.67352E-02 -1.31631E-01  4.52822E-05 -7.91665E-05  2.19961E-05 -2.02927E-03 -1.08750E-01  2.60689E-03  4.85567E-05 -4.95109E-06 -7.01657E-06  1.50000E+01
  2.07068E+01  1.96293E+01  1.96851E+01 -5.17256E-01 -4.54392E-02 -8.07482E-02 -3.03760E-01  4.27061E-05 -1.75856E-04  5.63066E-05 -1.88345E-03 -1.63444E-01  6.35383E-03  4.41278E-05 -9.68239E-07 -1.66796E-06  1.50000E+01
  2.06856E+01  1.96333E+01  1.96971E+01 -5.18112E-01 -5.46125E-02 -8.25474E-02 -2.18365E-01  4.54439E-05 -1.63869E-04  5.02560E-05 -1.53986E-03 -1.94616E-01  6.78437E-03  4.45752E-05 -3.17016E-07 -1.44904E-06  1.50000E+01
  2.03095E+01  1.96825E+01  1.99825E+01 -3.67120E-01  6.48098E-01 -1.08717E-02 -1.09885E+00 -1.49671E-04 -5.12267E-04 -7.13538E-06 -2.27722E-02  2.11112E+00 -2.14151E-03  4.71140E-05 -1.94407E-05  1.42399E-06  1.50000E+01
  2.04349E+01  1.96591E+01  2.01555E+01 -5.06092E-01  1.29638E-01  1.05583E-01 -5.67462E-01  3.35483E-05 -1.67684E-04 -1.04637E-05 -2.04987E-02  3.23158E-01  6.05975E-03  4.32498E-05 -2.84262E-06 -1.70988E-06  1.50000E+01
  2.03199E+01  1.96991E+01  2.01799E+01 -2.26229E-01  9.12443E-01  5.76825E-02 -9.32230E-01 -4.75671E-05 -1.72291E-04  3.32040E-05  8.82112E-03  2.99995E+00  2.09243E-03  4.25623E-05 -2.98223E-05 -7.39560E-06  1.50000E+01
  2.03392E+01  1.96911E+01  2.01938E+01 -2.62911E-01  8.57248E-01  7.59351E-02 -8.38434E-01 -3.42426E-05 -1.62738E-04  2.68935E-05  1.32891E-03  2.78158E+00  6.72404E-03  4.30842E-05 -2.76958E-05 -8.28543E-06  1.50000E+01
  2.01240E+01  1.98905E+01  2.01806E+01  6.32115E-03  1.24213E+00 -7.67603E-04 -3.71129E-01  2.44950E-05 -6.75910E-05  9.35725E-06  2.46730E-03  3.90991E+00 -2.28085E-05  4.43608E-05 -5.10294E-05 -2.40044E-06  1.50000E+01
  2.01061E+01  1.99010E+01  2.01675E+01  6.65769E-03  1.24482E+00 -6.05449E-04 -3.58841E-01  3.00548E-05 -6.69556E-05  6.93840E-06  2.05960E-03  3.89382E+00 -1.38902E-05  4.59532E-05 -5.20978E-05 -2.25909E-06  1.50000E+01
  2.07704E+01  1.96152E+01  1.96499E+01 -5.11657E-01 -2.75995E-03 -7.68650E-02 -2.94840E-01  3.68224E-05 -1.94054E-04  6.64881E-05 -3.10596E-03 -2.27964E-02  4.75784E-03  4.60156E-05 -3.50511E-06 -3.39975E-06  1.50000E+01
  2.02550E+01  1.97132E+01  2.00259E+01 -1.88344E-01  9.68139E-01  5.85969E-03 -9.29839E-01 -2.35045E-04 -4.40400E-04  1.93823E-05  8.96409E-03  3.19641E+00  2.36710E-04  4.21443E-05 -2.92258E-05 -2.09009E-06  1.50000E+01
  2.02561E+01  1.97148E+01  2.00539E+01 -1.79779E-01  9.79238E-01  1.17578E-02 -8.07676E-01 -1.74811E-04 -3.44996E-04  3.07811E-05  1.01835E-02  3.25284E+00  5.22276E-05  4.18390E-05 -2.99171E-05 -3.63370E-06  1.50000E+01
  2.04539E+01  1.96631E+01  2.00925E+01 -5.20619E-01 -7.57199E-02  5.39314E-02 -3.91465E-01  4.39714E-05 -9.99069E-05 -9.39123E-06 -3.06408E-03 -2.76583E-01 -1.96059E-03  3.86945E-05  1.98095E-06 -2.55194E-06  1.50000E+01
  2.04534E+01  1.96646E+01  2.00674E+01 -5.22229E-01 -1.02818E-01  3.85798E-02 -3.52859E-01  4.44884E-05 -8.57677E-05 -6.43173E-06 -1.78063E-03 -3.54818E-01 -2.00492E-03  3.86426E-05  2.48433E-06 -1.95964E-06  1.50000E+01
  2.02859E+01  1.97237E+01  2.01782E+01 -1.29052E-01  1.04603E+00  2.49386E-02 -7.41481E-01 -8.99064E-05 -1.93905E-04  5.69146E-05  1.85851E-02  3.43950E+00 -4.87080E-03  3.86650E-05 -3.36894E-05 -5.39174E-06  1.50000E+01
  2.02721E+01  1.97410E+01  2.01904E+01 -8.25045E-02  1.10448E+00  1.22014E-02 -6.62292E-01 -1.06520E-04 -1.94989E-04  7.14058E-05  1.76017E-02  3.60309E+00 -5.82310E-03  3.66549E-05 -3.56829E-05 -4.81095E-06  1.50000E+01
  2.02905E+01  1.97313E+01  2.02045E+01 -1.01952E-01  1.08166E+00  1.99275E-02 -6.83413E-01 -8.43406E-05 -1.75052E-04  6.15237E-05  1.96758E-02  3.52725E+00 -6.62903E-03  3.71204E-05 -3.51805E-05 -5.23074E-06  1.50000E+01
  2.06645E+01  1.96368E+01  1.97093E+01 -5.18664E-01 -6.11075E-02 -8.46489E-02 -2.21219E-01  4.66469E-05 -1.52457E-04  4.54703E-05 -1.26085E-03 -2.17533E-01  7.12766E-03  4.40983E-05  3.81725E-07 -8.18256E-07  1.50000E+01
  2.02910E+01  1.96914E+01  2.00251E+01 -3.04642E-01  7.75547E-01  1.11434E-02 -1.36023E+00 -2.63901E-04 -6.45800E-04  1.97227E-05 -9.45544E-03  2.59940E+00  1.65669E-03  4.64837E-05 -2.39420E-05 -2.11699E-06  1.50000E+01
  2.02905E+01  1.96911E+01  1.99970E+01 -3.07320E-01  7.71629E-01 -2.01334E-03 -1.39700E+00 -2.78746E-04 -6.78077E-04 -1.39248E-06 -1.00901E-02  2.54657E+00 -3.05096E-04  4.57406E-05 -2.33274E-05  3.73723E-07  1.50000E+01
  2.04530E+01  1.96656E+01  2.00422E+01 -5.23668E-01 -1.20290E-01  2.41674E-02 -3.38922E-01  4.55417E-05 -7.65973E-05 -3.80237E-06 -1.23431E-03 -4.08052E-01 -1.54209E-03  3.93505E-05  2.85147E-06 -1.38182E-06  1.50000E+01
  2.07492E+01  1.96202E+01  1.96615E+01 -5.14165E-01 -1.93664E-02 -7.79841E-02 -2.89916E-01  3.84939E-05 -2.01115E-04  6.82957E-05 -2.68632E-03 -7.70070E-02  5.29836E-03  4.55141E-05 -2.56668E-06 -2.56381E-06  1.50000E+01
  2.07280E+01  1.96250E+01  1.96732E+01 -5.15984E-01 -3.36507E-02 -7.92447E-02 -2.82008E-01  4.07373E-05 -1.90760E-04  6.29006E-05 -2.27751E-03 -1.24107E-01  5.84999E-03  4.47953E-05 -1.82491E-06 -2.34389E-06  1.50000E+01
  2.02788E+01  1.97117E+01  2.01240E+01 -1.83517E-01  9.70887E-01  2.87171E-02 -8.86245E-01 -1.03271E-04 -2.41530E-04  4.38513E-05  1.29072E-02  3.25871E+00 -8.59430E-04  4.20213E-05 -3.13260E-05 -6.42488E-06  1.50000E+01
  2.02604E+01  1.97217E+01  2.01097E+01 -1.47618E-01  1.02141E+00  1.80677E-02 -9.44735E-01 -1.18319E-04 -2.43844E-04  4.53830E-05  1.43707E-02  3.39779E+00 -1.79836E-03  4.00400E-05 -3.17544E-05 -4.90407E-06  1.50000E+01
  2.04933E+01  1.96702E+01  1.99903E+01 -5.27886E-01 -1.86293E-01 -3.17428E-03 -1.99009E-01  4.63079E-05 -2.63258E-05  1.17655E-07  3.70132E-04 -5.93747E-01  3.12802E-04  4.23535E-05  4.57075E-06 -2.09189E-07  1.50000E+01
  2.04728E+01  1.96679E+01  1.99779E+01 -5.26497E-01 -1.62589E-01 -9.56647E-03 -2.53750E-01  4.69706E-05 -4.57580E-05  1.00887E-06  5.42280E-05 -5.33614E-01  9.42659E-04  4.13430E-05  3.94758E-06  1.98845E-07  1.50000E+01
  2.04730E+01  1.96681E+01  2.00035E+01 -5.26163E-01 -1.65499E-01  2.74509E-03 -2.51254E-01  4.65295E-05 -4.09650E-05 -1.77810E-07  2.39298E-04 -5.38117E-01 -1.36773E-04  4.13196E-05  4.00309E-06 -8.75879E-08  1.50000E+01
  2.07502E+01  1.96115E+01  1.96370E+01 -5.06929E-01  1.57324E-02 -9.19997E-02 -3.32112E-01  3.35561E-05 -2.37891E-04  8.13582E-05 -3.63121E-03  2.74549E-02  6.41004E-03  4.52533E-05 -2.80610E-06 -1.41264E-06  1.50000E+01
  2.04556E+01  1.96573E+01  2.01680E+01 -5.11214E-01  7.70695E-02  1.07427E-01 -4.99714E-01  3.78191E-05 -1.62526E-04 -1.57794E-05 -1.50763E-02  1.68553E-01  2.71144E-03  4.24711E-05 -1.29492E-06 -2.67018E-06  1.50000E+01
  2.04550E+01  1.96594E+01  2.01427E+01 -5.15966E-01  1.27097E-02  8.83112E-02 -4.52828E-01  4.47860E-05 -1.37118E-04 -1.28911E-05 -9.38346E-03 -2.28955E-02  1.05063E-04  4.39745E-05  5.90530E-08 -1.38567E-06  1.50000E+01
  2.02579E+01  1.97177E+01  2.00819E+01 -1.65824E-01  9.97593E-01  1.59910E-02 -9.04214E-01 -1.20093E-04 -2.56124E-04  3.38579E-05  1.21941E-02  3.32355E+00 -6.39250E-04  4.10594E-05 -3.07601E-05 -4.68227E-06  1.50000E+01
  2.03091E+01  1.97220E+01  2.02184E+01 -1.23888E-01  1.05643E+00  3.00676E-02 -6.59549E-01 -6.74252E-05 -1.61759E-04  5.34186E-05  2.08964E-02  3.43639E+00 -6.87120E-03  3.78476E-05 -3.46767E-05 -5.81261E-06  1.50000E+01
  2.03278E+01  1.97129E+01  2.02322E+01 -1.48027E-01  1.02858E+00  4.26212E-02 -7.77410E-01 -5.79626E-05 -1.56812E-04  4.92055E-05  2.08492E-02  3.33304E+00 -6.27666E-03  3.87660E-05 -3.39437E-05 -6.19242E-06  1.50000E+01
  2.03234E+01  1.97055E+01  2.02063E+01 -1.86727E-01  9.73214E-01  5.16266E-02 -7.43388E-01 -5.34283E-05 -1.65150E-04  4.19045E-05  1.58140E-02  3.17074E+00 -2.12040E-03  4.05848E-05 -3.18030E-05 -6.62336E-06  1.50000E+01
  2.00885E+01  1.99118E+01  2.01545E+01  6.90703E-03  1.24734E+00 -5.83671E-04 -3.34685E-01  3.96221E-05 -5.83206E-05  2.57720E-07  1.71562E-03  3.86448E+00 -5.30685E-05  4.55622E-05 -5.17502E-05 -2.98117E-06  1.50000E+01
  2.00770E+01  1.99316E+01  2.01656E+01  5.34562E-03  1.25088E+00 -4.63214E-04 -3.96234E-01  5.95943E-05 -4.88438E-05 -1.31124E-05  1.45443E-03  3.84624E+00 -5.44839E-05  4.86271E-05 -5.71054E-05 -5.83916E-06  1.50000E+01