 TITLE="3D TRIANGULAR SURFACE DATA"
VARIABLES="X","Y","Z","U","V","W","P", "Fex", "Fey", "Fez","Finx","Finy","Finz","WSSx","WSSy","WSSz","AMForce"
 ZONE T="unstruc"N=        1757 E=        3355 F=FEPOINT  ET=TRIANGLE
  2.04336E+01  2.03729E+01  2.00905E+01 -4.07873E-01  1.69480E-01 -1.54450E-02 -3.04030E-01  3.26384E-05 -3.15949E-04  5.56088E-05 -7.77465E-04  6.95605E-01 -9.65115E-06  5.39862E-05 -2.52955E-06  6.39592E-06  1.50000E+01
  2.04562E+01  2.03715E+01  2.00908E+01 -4.03457E-01  1.80171E-01 -1.78519E-02 -2.73120E-01  1.52274E-05 -1.28039E-04  2.31000E-05 -2.50122E-03  3.47304E-01 -4.82635E-04  2.42551E-05 -1.12795E-06  3.30474E-06  1.50000E+01
  2.04518E+01  2.03691E+01  2.00709E+01 -4.03541E-01  1.81371E-01 -1.40090E-02 -2.36912E-01  2.12851E-05 -2.05321E-04  2.84229E-05 -4.55856E-04  5.15276E-01 -2.28222E-03  3.53567E-05 -1.86398E-06  4.05311E-06  1.50000E+01
  2.04297E+01  2.03784E+01  2.01195E+01 -4.09175E-01  1.62051E-01 -1.97038E-02 -3.23294E-01  3.02222E-05 -3.01344E-04  6.90782E-05 -9.56847E-04  5.62323E-01 -1.30269E-03  5.11533E-05 -1.67754E-06  8.65086E-06  1.50000E+01
  2.04519E+01  2.03752E+01  2.01105E+01 -4.04456E-01  1.73335E-01 -2.04801E-02 -3.17279E-01  2.32950E-05 -2.22350E-04  4.84281E-05 -9.08691E-04  4.89979E-01  2.12877E-03  3.92669E-05 -1.39716E-06  6.84434E-06  1.50000E+01
  2.04720E+01  2.03722E+01  2.01020E+01 -3.99777E-01  1.86867E-01 -2.17330E-02 -2.51902E-01  1.87181E-05 -1.64803E-04  3.36500E-05 -1.84251E-03  4.54920E-01 -1.01182E-03  3.08506E-05 -1.30676E-06  5.08817E-06  1.50000E+01
  2.04720E+01  2.03688E+01  2.00798E+01 -3.99176E-01  1.92058E-01 -1.71312E-02 -2.68316E-01  1.80287E-05 -1.68580E-04  2.66919E-05 -1.41067E-03  4.71480E-01  8.06899E-04  3.02030E-05 -1.51404E-06  4.40251E-06  1.50000E+01
  2.04495E+01  2.03667E+01  2.00459E+01 -4.03504E-01  1.83758E-01 -8.87929E-03 -3.38425E-01  2.11908E-05 -2.59771E-04  2.35022E-05 -6.87219E-04  5.70150E-01 -5.34929E-04  3.83050E-05 -2.20481E-06  3.20351E-06  1.50000E+01
  2.04295E+01  2.03694E+01  2.00613E+01 -4.08182E-01  1.72598E-01 -1.01478E-02 -2.91639E-01  2.60549E-05 -2.74265E-04  3.28632E-05 -1.03583E-03  6.04116E-01  9.10620E-04  4.36952E-05 -2.31893E-06  3.97220E-06  1.50000E+01
  2.04278E+01  2.03673E+01  2.00345E+01 -4.08131E-01  1.74749E-01 -5.54469E-03 -3.45462E-01  2.21197E-05 -2.95722E-04  2.03821E-05 -8.22807E-04  5.74648E-01  2.67033E-04  4.07257E-05 -2.36053E-06  2.45080E-06  1.50000E+01
  2.04497E+01  2.03803E+01  2.01348E+01 -4.05315E-01  1.65918E-01 -2.45597E-02 -3.26479E-01  2.61778E-05 -2.63171E-04  6.90094E-05 -9.38466E-04  5.04891E-01  5.31483E-04  4.51020E-05 -9.04374E-07  9.94829E-06  1.50000E+01
  2.04707E+01  2.03767E+01  2.01248E+01 -4.00283E-01  1.79611E-01 -2.57620E-02 -3.16585E-01  2.18853E-05 -2.25926E-04  5.48702E-05 -5.38770E-04  5.03774E-01  3.48567E-04  3.88369E-05 -1.13220E-06  7.85731E-06  1.50000E+01
  2.03858E+01  2.03760E+01  2.00900E+01 -4.16593E-01  1.57019E-01 -1.08448E-02 -3.15747E-01  2.84907E-05 -3.22599E-04  5.50749E-05 -8.55251E-04  5.57476E-01 -1.03494E-03  5.05272E-05 -2.67023E-06  4.37937E-06  1.50000E+01
  2.03854E+01  2.03724E+01  2.00630E+01 -4.16391E-01  1.60968E-01 -7.60490E-03 -3.14906E-01  2.50825E-05 -3.08006E-04  3.70362E-05 -1.01485E-03  5.60883E-01 -5.05634E-04  4.53877E-05 -2.66662E-06  2.46323E-06  1.50000E+01
  2.03637E+01  2.03755E+01  2.00763E+01 -4.19806E-01  1.56478E-01 -7.39362E-03 -3.04001E-01  2.57098E-05 -3.18484E-04  4.58874E-05 -7.13660E-04  5.38539E-01 -1.37628E-03  4.81039E-05 -2.94820E-06  2.63827E-06  1.50000E+01
  2.04083E+01  2.03769E+01  2.01041E+01 -4.12994E-01  1.59031E-01 -1.49202E-02 -3.17463E-01  3.05176E-05 -3.32177E-04  6.54377E-05 -1.29850E-03  5.96711E-01 -6.28486E-04  5.33160E-05 -2.39981E-06  6.34320E-06  1.50000E+01
  2.03857E+01  2.03808E+01  2.01166E+01 -4.16940E-01  1.51349E-01 -1.36307E-02 -3.01970E-01  3.06653E-05 -3.18828E-04  7.06374E-05 -6.55763E-04  5.27154E-01 -1.91570E-03  5.31913E-05 -2.39183E-06  6.53520E-06  1.50000E+01
  2.04073E+01  2.03823E+01  2.01309E+01 -4.13551E-01  1.52893E-01 -1.82851E-02 -3.16545E-01  2.80976E-05 -3.12249E-04  7.70766E-05 -6.70243E-04  5.22174E-01 -1.53695E-03  5.02533E-05 -1.78700E-06  7.65722E-06  1.50000E+01
  2.04081E+01  2.03726E+01  2.00764E+01 -4.12604E-01  1.63628E-01 -1.10452E-02 -3.10678E-01  2.80361E-05 -3.13126E-04  4.58009E-05 -1.18562E-03  6.14824E-01 -4.46203E-04  4.86010E-05 -2.58645E-06  3.92771E-06  1.50000E+01
  2.04069E+01  2.03696E+01  2.00490E+01 -4.12470E-01  1.66639E-01 -6.90568E-03 -2.85890E-01  2.48687E-05 -2.94190E-04  2.80213E-05 -9.67191E-04  5.73717E-01 -1.00852E-04  4.35134E-05 -2.47670E-06  2.64859E-06  1.50000E+01
  2.04911E+01  2.03691E+01  2.00909E+01 -3.94445E-01  2.03127E-01 -2.15434E-02 -2.39127E-01  1.90025E-05 -1.86095E-04  3.39538E-05 -1.24616E-03  5.46930E-01 -1.47219E-04  3.30977E-05 -1.55408E-06  5.72106E-06  1.50000E+01
  2.04908E+01  2.03659E+01  2.00672E+01 -3.93821E-01  2.08106E-01 -1.61383E-02 -3.18209E-01  1.78786E-05 -2.16820E-04  2.91498E-05 -9.98997E-04  5.81620E-01  3.50679E-05  3.40691E-05 -1.92853E-06  4.84578E-06  1.50000E+01
  2.04909E+01  2.03731E+01  2.01143E+01 -3.95051E-01  1.96339E-01 -2.66492E-02 -2.89636E-01  2.01126E-05 -1.98332E-04  4.48838E-05 -1.43381E-03  5.42667E-01 -3.87985E-04  3.54865E-05 -1.30398E-06  6.93166E-06  1.50000E+01
  2.04705E+01  2.03663E+01  2.00564E+01 -3.98652E-01  1.95104E-01 -1.23434E-02 -3.31487E-01  1.87145E-05 -2.29466E-04  2.57388E-05 -1.80277E-04  5.56808E-01 -4.59662E-04  3.48528E-05 -2.01188E-06  4.01101E-06  1.50000E+01
  2.04903E+01  2.03637E+01  2.00428E+01 -3.93288E-01  2.11376E-01 -1.05106E-02 -3.17809E-01  1.82887E-05 -2.42216E-04  2.13005E-05 -4.13051E-04  6.23158E-01 -3.34557E-04  3.61530E-05 -2.32456E-06  3.83787E-06  1.50000E+01
  2.04060E+01  2.03680E+01  2.00223E+01 -4.12355E-01  1.68420E-01 -2.85005E-03 -3.39307E-01  2.28936E-05 -3.03384E-04  1.35248E-05 -8.37473E-04  5.57560E-01  8.61750E-05  4.17666E-05 -2.49858E-06  1.32536E-06  1.50000E+01
  2.04484E+01  2.03653E+01  2.00201E+01 -4.03434E-01  1.85398E-01 -3.76187E-03 -3.40691E-01  2.09776E-05 -2.81757E-04  1.15243E-05 -6.21836E-04  5.85227E-01 -1.07439E-04  3.92181E-05 -2.41926E-06  1.59015E-06  1.50000E+01
  2.04270E+01  2.03663E+01  2.00082E+01 -4.08074E-01  1.75844E-01 -1.01014E-03 -3.44933E-01  2.17133E-05 -2.99051E-04  5.29943E-06 -6.70855E-04  5.67330E-01  2.00199E-04  4.03779E-05 -2.43944E-06  6.71625E-07  1.50000E+01
  2.03855E+01  2.03866E+01  2.01424E+01 -4.17429E-01  1.43423E-01 -1.56904E-02 -2.91816E-01  2.67483E-05 -3.08941E-04  8.12669E-05 -1.87140E-05  4.85436E-01 -3.42183E-03  4.93265E-05 -2.01976E-06  6.35638E-06  1.50000E+01
  2.04067E+01  2.03885E+01  2.01563E+01 -4.14189E-01  1.45334E-01 -2.10054E-02 -3.00017E-01  2.44417E-05 -2.99973E-04  8.59736E-05 -2.67578E-04  4.78012E-01 -2.67704E-03  4.66515E-05 -1.44791E-06  7.38381E-06  1.50000E+01
  2.08111E+01  2.04109E+01  1.96958E+01 -2.71409E-01  4.67199E-01  1.62190E-01 -5.43404E-01  3.65599E-05 -3.08195E-04 -1.80979E-04  2.23964E-03  1.47710E+00  3.05370E-03  3.55202E-05  1.01018E-05 -1.95051E-05  1.50000E+01
  2.07915E+01  2.04045E+01  1.97091E+01 -2.76969E-01  4.50664E-01  1.51843E-01 -5.84137E-01  2.78863E-05 -3.18621E-04 -1.76249E-04  2.05268E-03  1.42308E+00  2.64443E-03  3.56344E-05  8.82651E-06 -2.00344E-05  1.50000E+01
  2.08118E+01  2.03986E+01  1.97210E+01 -2.70048E-01  4.86480E-01  1.52592E-01 -4.93236E-01  3.29034E-05 -2.86949E-04 -1.57426E-04  1.96234E-03  1.53598E+00  2.51383E-03  3.58043E-05  8.50919E-06 -1.86739E-05  1.50000E+01
  2.07920E+01  2.03929E+01  1.97345E+01 -2.76307E-01  4.69194E-01  1.41608E-01 -4.75782E-01  2.52246E-05 -2.91787E-04 -1.49982E-04  1.75397E-03  1.47996E+00  2.15066E-03  3.59265E-05  7.23343E-06 -1.90540E-05  1.50000E+01
  2.08123E+01  2.03872E+01  1.97464E+01 -2.69307E-01  5.03277E-01  1.41467E-01 -4.71512E-01  3.00114E-05 -2.60979E-04 -1.33207E-04  1.67141E-03  1.58712E+00  1.99688E-03  3.59011E-05  7.12010E-06 -1.81450E-05  1.50000E+01
  2.08696E+01  2.04350E+01  1.96576E+01 -2.62383E-01  5.09248E-01  1.88923E-01 -4.43773E-01  5.99207E-05 -2.39458E-04 -1.72813E-04  2.36960E-03  1.61414E+00  3.92721E-03  3.75450E-05  1.44761E-05 -1.80356E-05  1.50000E+01
  2.08502E+01  2.04261E+01  1.96700E+01 -2.64095E-01  4.96777E-01  1.80934E-01 -5.15625E-01  5.34711E-05 -2.72784E-04 -1.82295E-04  2.38183E-03  1.57362E+00  3.72836E-03  3.61371E-05  1.28267E-05 -1.83308E-05  1.50000E+01
  2.08705E+01  2.04206E+01  1.96821E+01 -2.58079E-01  5.31501E-01  1.83128E-01 -4.10992E-01  5.47133E-05 -2.37969E-04 -1.60923E-04  2.15826E-03  1.68325E+00  3.33347E-03  3.72866E-05  1.26760E-05 -1.75502E-05  1.50000E+01
  2.04905E+01  2.03781E+01  2.01380E+01 -3.95579E-01  1.88063E-01 -3.14404E-02 -3.29962E-01  2.18340E-05 -2.35960E-04  6.37296E-05 -1.00722E-03  5.44754E-01  1.49563E-04  4.02282E-05 -7.48688E-07  9.88052E-06  1.50000E+01
  2.08713E+01  2.04071E+01  1.97069E+01 -2.54819E-01  5.51039E-01  1.74862E-01 -3.93476E-01  4.92477E-05 -2.05136E-04 -1.31790E-04  1.92205E-03  1.74372E+00  2.72290E-03  3.79761E-05  1.12182E-05 -1.73385E-05  1.50000E+01
  2.08909E+01  2.04152E+01  1.96943E+01 -2.52103E-01  5.64172E-01  1.85365E-01 -3.26421E-01  5.49058E-05 -1.75580E-04 -1.23963E-04  1.96064E-03  1.78663E+00  3.00179E-03  4.13841E-05  1.27137E-05 -1.68169E-05  1.50000E+01
  2.05105E+01  2.03614E+01  2.00296E+01 -3.87473E-01  2.29572E-01 -8.17540E-03 -2.95684E-01  1.83988E-05 -2.40591E-04  1.50824E-05 -4.57624E-04  6.86285E-01 -3.09807E-04  3.72762E-05 -2.67946E-06  3.14035E-06  1.50000E+01
  2.04899E+01  2.03625E+01  2.00178E+01 -3.93058E-01  2.13210E-01 -4.55146E-03 -3.24521E-01  1.91182E-05 -2.55066E-04  9.46911E-06 -3.70786E-04  6.46015E-01 -2.80575E-04  3.76809E-05 -2.62831E-06  1.73730E-06  1.50000E+01
  2.04283E+01  2.03842E+01  2.01453E+01 -4.09971E-01  1.55083E-01 -2.32957E-02 -3.29811E-01  2.69057E-05 -2.90127E-04  7.98417E-05 -8.73062E-04  5.00169E-01 -1.11233E-03  4.75751E-05 -1.02764E-06  9.51470E-06  1.50000E+01
  2.04277E+01  2.03908E+01  2.01701E+01 -4.10694E-01  1.47333E-01 -2.65804E-02 -2.80688E-01  2.40722E-05 -2.81668E-04  8.78431E-05 -6.08161E-04  4.68737E-01 -1.84172E-03  4.50798E-05 -7.01951E-07  9.18884E-06  1.50000E+01
  2.04489E+01  2.03863E+01  2.01593E+01 -4.06091E-01  1.58204E-01 -2.86031E-02 -2.96299E-01  2.43754E-05 -2.66352E-04  7.99584E-05 -1.02848E-03  4.86855E-01 -1.66762E-04  4.38339E-05 -4.59133E-07  1.02237E-05  1.50000E+01
  2.04056E+01  2.03676E+01  1.99959E+01 -4.12301E-01  1.69011E-01  1.13164E-03 -3.46545E-01  2.20138E-05 -3.07093E-04 -1.93611E-06 -7.34815E-04  5.47418E-01  1.97835E-04  4.10400E-05 -2.49340E-06 -2.50665E-07  1.50000E+01
  2.04479E+01  2.03650E+01  1.99942E+01 -4.03467E-01  1.85762E-01  1.30552E-03 -3.38966E-01  2.09224E-05 -2.87161E-04 -2.80296E-06 -5.35221E-04  5.85760E-01  9.67820E-05  3.93592E-05 -2.46148E-06 -3.04442E-07  1.50000E+01
  2.04266E+01  2.03665E+01  1.99822E+01 -4.08141E-01  1.75654E-01  3.45306E-03 -3.38783E-01  2.14202E-05 -2.96237E-04 -9.91292E-06 -6.34997E-04  5.59300E-01  2.33734E-04  3.99451E-05 -2.39665E-06 -1.15291E-06  1.50000E+01
  2.08329E+01  2.03715E+01  1.97845E+01 -2.62291E-01  5.48510E-01  1.27477E-01 -2.77265E-01  3.14614E-05 -1.97042E-04 -9.06497E-05  1.26142E-03  1.72747E+00  1.30171E-03  3.55099E-05  5.11385E-06 -1.52050E-05  1.50000E+01
  2.08528E+01  2.03767E+01  1.97709E+01 -2.56163E-01  5.66070E-01  1.39653E-01 -3.06452E-01  3.68543E-05 -1.90089E-04 -9.53182E-05  1.36025E-03  1.78564E+00  1.44501E-03  3.67543E-05  6.49904E-06 -1.56342E-05  1.50000E+01
  2.08325E+01  2.03818E+01  1.97586E+01 -2.62619E-01  5.35554E-01  1.40783E-01 -3.78489E-01  3.37531E-05 -2.25805E-04 -1.14472E-04  1.52987E-03  1.68874E+00  1.75437E-03  3.61249E-05  6.87500E-06 -1.70247E-05  1.50000E+01
  2.05110E+01  2.03695E+01  2.01029E+01 -3.89136E-01  2.15845E-01 -2.67141E-02 -2.56561E-01  1.86955E-05 -2.01231E-04  4.15320E-05 -1.21370E-03  6.17226E-01 -3.51571E-04  3.49228E-05 -1.49832E-06  7.13069E-06  1.50000E+01
  2.01138E+01  2.03205E+01  2.01913E+01 -9.71075E-02 -8.77212E-01  2.89160E-03 -7.08801E-01  3.10243E-04 -2.35528E-04 -1.67399E-04  1.81693E-02 -2.77640E+00 -8.73041E-03  4.29676E-05  4.04032E-05  2.42684E-06  1.50000E+01
  2.01022E+01  2.03013E+01  2.02019E+01 -6.69027E-02 -9.06499E-01 -7.62437E-05 -8.40841E-01  3.80009E-04 -2.68556E-04 -2.28421E-04  9.95626E-03 -2.85495E+00 -3.79211E-03  4.73190E-05  4.75008E-05  2.95060E-06  1.50000E+01
  2.01207E+01  2.03112E+01  2.02148E+01 -7.92778E-02 -8.86079E-01  1.02778E-03 -1.25624E+00  3.23674E-04 -2.13736E-04 -1.88773E-04  1.23299E-02 -2.80161E+00 -5.59778E-03  4.68291E-05  4.70613E-05  2.91408E-06  1.50000E+01
  2.08923E+01  2.03893E+01  1.97445E+01 -2.46361E-01  5.97947E-01  1.64765E-01 -2.23626E-01  4.46263E-05 -1.10371E-04 -7.15775E-05  1.48093E-03  1.89102E+00  1.85293E-03  3.98477E-05  9.16867E-06 -1.53848E-05  1.50000E+01
  2.09119E+01  2.03967E+01  1.97316E+01 -2.42737E-01  6.11829E-01  1.77586E-01 -4.97176E-02  2.29558E-05 -3.55086E-05 -2.82742E-05  1.04949E-02  1.01111E+00  1.65443E-02  2.06183E-05  5.20197E-06 -7.71777E-06  1.50000E+01
  2.08916E+01  2.04018E+01  1.97192E+01 -2.48793E-01  5.82293E-01  1.76183E-01 -2.14136E-01  4.82204E-05 -1.32359E-04 -9.07632E-05  1.72239E-03  1.84278E+00  2.40767E-03  4.00792E-05  1.09609E-05 -1.63774E-05  1.50000E+01
  2.08320E+01  2.03930E+01  1.97330E+01 -2.63441E-01  5.20378E-01  1.52803E-01 -4.19083E-01  3.65031E-05 -2.51169E-04 -1.37079E-04  1.81080E-03  1.64278E+00  2.26884E-03  3.60073E-05  8.19557E-06 -1.74189E-05  1.50000E+01
  2.08523E+01  2.03877E+01  1.97452E+01 -2.57069E-01  5.52375E-01  1.52593E-01 -4.05466E-01  3.91505E-05 -2.13133E-04 -1.16096E-04  1.62412E-03  1.74416E+00  1.94826E-03  3.64193E-05  8.06460E-06 -1.66177E-05  1.50000E+01
  2.04053E+01  2.03683E+01  1.99700E+01 -4.12367E-01  1.68395E-01  5.00524E-03 -3.33049E-01  2.23731E-05 -2.87384E-04 -1.61574E-05 -7.00322E-04  5.38037E-01  2.28335E-04  4.03018E-05 -2.37794E-06 -1.61380E-06  1.50000E+01
  2.03848E+01  2.03700E+01  2.00362E+01 -4.16249E-01  1.63517E-01 -4.16737E-03 -2.68842E-01  2.42630E-05 -2.94925E-04  2.09066E-05 -9.99412E-04  5.51178E-01 -1.73147E-04  4.32666E-05 -2.63403E-06  1.59122E-06  1.50000E+01
  2.03844E+01  2.03689E+01  2.00097E+01 -4.16125E-01  1.64822E-01 -7.03425E-04 -3.40223E-01  2.27756E-05 -3.03935E-04  5.95994E-06 -8.78831E-04  5.42320E-01  5.65134E-05  4.21276E-05 -2.62480E-06  4.51129E-07  1.50000E+01
  2.08493E+01  2.04406E+01  1.96456E+01 -2.68358E-01  4.72842E-01  1.85960E-01 -5.12651E-01  6.08483E-05 -2.85938E-04 -2.02475E-04  2.59604E-03  1.49933E+00  4.35351E-03  3.71212E-05  1.46046E-05 -1.87752E-05  1.50000E+01
  2.07925E+01  2.03821E+01  1.97601E+01 -2.76117E-01  4.85319E-01  1.30093E-01 -4.07906E-01  2.48904E-05 -2.49583E-04 -1.21033E-04  1.46324E-03  1.52844E+00  1.69461E-03  3.64970E-05  6.10344E-06 -1.90018E-05  1.50000E+01
  2.08127E+01  2.03767E+01  1.97722E+01 -2.69053E-01  5.17757E-01  1.29061E-01 -2.88406E-01  2.89985E-05 -2.14558E-04 -1.02434E-04  1.39031E-03  1.63035E+00  1.52495E-03  3.54906E-05  5.48166E-06 -1.67046E-05  1.50000E+01
  2.03634E+01  2.03725E+01  2.00498E+01 -4.19670E-01  1.60425E-01 -4.80235E-03 -3.10687E-01  2.38070E-05 -3.08211E-04  2.93720E-05 -9.17596E-04  5.43648E-01 -6.68610E-04  4.48940E-05 -2.88275E-06  1.47464E-06  1.50000E+01
  2.03418E+01  2.03729E+01  2.00367E+01 -4.22517E-01  1.61192E-01 -2.54759E-03 -3.03529E-01  2.22931E-05 -3.09028E-04  2.17658E-05 -7.04198E-04  5.40187E-01 -8.52636E-04  4.45343E-05 -3.11980E-06  8.50462E-07  1.50000E+01
  2.03420E+01  2.03753E+01  2.00630E+01 -4.22652E-01  1.56878E-01 -4.47517E-03 -2.97100E-01  2.40946E-05 -3.13427E-04  3.74400E-05 -4.92574E-04  5.32942E-01 -1.74654E-03  4.70411E-05 -3.19128E-06  1.72583E-06  1.50000E+01
  2.05110E+01  2.03659E+01  2.00788E+01 -3.88510E-01  2.22196E-01 -2.07796E-02 -3.16785E-01  1.71963E-05 -2.20424E-04  3.50898E-05 -1.01797E-03  6.36819E-01 -3.24420E-04  3.46935E-05 -1.88628E-06  6.06425E-06  1.50000E+01
  2.05108E+01  2.03631E+01  2.00544E+01 -3.87909E-01  2.26779E-01 -1.45845E-02 -3.08334E-01  1.74797E-05 -2.33124E-04  2.64600E-05 -7.30209E-04  6.63944E-01 -2.50801E-04  3.58173E-05 -2.28330E-06  5.18224E-06  1.50000E+01
  2.05309E+01  2.03593E+01  2.00165E+01 -3.81272E-01  2.48986E-01 -5.19762E-03 -2.67372E-01  1.74492E-05 -2.31899E-04  8.30430E-06 -5.01973E-04  7.49288E-01 -2.27362E-04  3.73138E-05 -2.98470E-06  2.03816E-06  1.50000E+01
  2.05103E+01  2.03607E+01  2.00044E+01 -3.87318E-01  2.30582E-01 -1.56197E-03 -2.92623E-01  1.89048E-05 -2.45776E-04  2.25861E-06 -4.47811E-04  6.98369E-01 -2.36154E-04  3.80100E-05 -2.87814E-06  4.35854E-07  1.50000E+01
  2.08517E+01  2.03996E+01  1.97198E+01 -2.58601E-01  5.36373E-01  1.63972E-01 -4.04149E-01  4.31450E-05 -2.30603E-04 -1.36500E-04  1.87555E-03  1.69549E+00  2.49394E-03  3.62178E-05  9.62530E-06 -1.73177E-05  1.50000E+01
  2.08510E+01  2.04125E+01  1.96947E+01 -2.60893E-01  5.17900E-01  1.73514E-01 -4.29272E-01  4.77794E-05 -2.51791E-04 -1.58675E-04  2.13829E-03  1.63905E+00  3.10308E-03  3.65133E-05  1.13061E-05 -1.80376E-05  1.50000E+01
  2.07717E+01  2.03988E+01  1.97227E+01 -2.83677E-01  4.33429E-01  1.41142E-01 -5.25430E-01  2.04666E-05 -3.16517E-04 -1.65973E-04  1.74269E-03  1.36723E+00  2.22505E-03  3.59653E-05  7.54960E-06 -2.04183E-05  1.50000E+01
  2.03640E+01  2.03849E+01  2.01286E+01 -4.20453E-01  1.41353E-01 -1.07037E-02 -2.82522E-01  2.82990E-05 -3.11083E-04  7.41950E-05  2.01164E-04  4.85489E-01 -4.18479E-03  5.09524E-05 -2.51654E-06  5.22517E-06  1.50000E+01
  2.03426E+01  2.03892E+01  2.01406E+01 -4.24080E-01  1.22517E-01 -4.67585E-03 -2.30174E-01  2.71052E-05 -3.08406E-04  7.72778E-05  8.68867E-04  4.30431E-01 -7.31771E-03  4.89353E-05 -2.42995E-06  4.03552E-06  1.50000E+01
  2.03640E+01  2.03911E+01  2.01540E+01 -4.21241E-01  1.28094E-01 -1.05295E-02 -2.30624E-01  2.62134E-05 -3.04354E-04  8.38429E-05  7.70614E-04  4.41610E-01 -6.52073E-03  4.84647E-05 -2.10726E-06  5.19122E-06  1.50000E+01
  2.08720E+01  2.03944E+01  1.97321E+01 -2.52455E-01  5.68019E-01  1.64417E-01 -3.07775E-01  4.44827E-05 -1.83823E-04 -1.10083E-04  1.67161E-03  1.79585E+00  2.14282E-03  3.77343E-05  9.52499E-06 -1.66373E-05  1.50000E+01
  2.07908E+01  2.04168E+01  1.96841E+01 -2.78238E-01  4.29571E-01  1.60567E-01 -5.89773E-01  3.14928E-05 -3.33243E-04 -1.96700E-04  2.33467E-03  1.35823E+00  3.15946E-03  3.53629E-05  1.02012E-05 -2.04857E-05  1.50000E+01
  2.07711E+01  2.04106E+01  1.96975E+01 -2.84257E-01  4.13102E-01  1.50492E-01 -5.82361E-01  2.22176E-05 -3.40033E-04 -1.90082E-04  2.03476E-03  1.30446E+00  2.68782E-03  3.55210E-05  8.95689E-06 -2.10939E-05  1.50000E+01
  2.04486E+01  2.03931E+01  2.01837E+01 -4.06812E-01  1.49697E-01 -3.24744E-02 -3.00098E-01  2.25439E-05 -2.79360E-04  9.33889E-05 -9.33434E-04  4.65738E-01 -9.24968E-04  4.36903E-05 -1.75617E-07  1.02268E-05  1.50000E+01
  2.04695E+01  2.03885E+01  2.01728E+01 -4.01746E-01  1.62544E-01 -3.45070E-02 -3.31079E-01  2.21262E-05 -2.65940E-04  8.60419E-05 -1.14648E-03  4.92769E-01  1.62511E-04  4.22438E-05  4.72232E-08  1.12532E-05  1.50000E+01
  2.04275E+01  2.03980E+01  2.01945E+01 -4.11518E-01  1.37859E-01 -2.94024E-02 -3.27094E-01  2.22331E-05 -3.05225E-04  1.06186E-04 -4.12526E-04  4.43179E-01 -3.41943E-03  4.55581E-05 -1.97381E-08  1.07429E-05  1.50000E+01
  2.04475E+01  2.03658E+01  1.99685E+01 -4.03690E-01  1.84615E-01  6.26877E-03 -3.21535E-01  2.05525E-05 -2.85672E-04 -1.73484E-05 -6.71173E-04  5.79595E-01  1.36627E-04  3.88913E-05 -2.30499E-06 -2.28327E-06  1.50000E+01
  2.08307E+01  2.04181E+01  1.96827E+01 -2.67100E-01  4.82679E-01  1.71963E-01 -5.13188E-01  4.52217E-05 -2.90391E-04 -1.81898E-04  2.35972E-03  1.52787E+00  3.44054E-03  3.55825E-05  1.14268E-05 -1.88918E-05  1.50000E+01
  2.08299E+01  2.04318E+01  1.96581E+01 -2.70230E-01  4.59814E-01  1.78574E-01 -5.61178E-01  5.12770E-05 -3.05069E-04 -2.02751E-04  2.61803E-03  1.45690E+00  4.06902E-03  3.56084E-05  1.30350E-05 -1.93641E-05  1.50000E+01
  2.08104E+01  2.04239E+01  1.96709E+01 -2.73528E-01  4.45277E-01  1.70022E-01 -5.75310E-01  4.12810E-05 -3.21990E-04 -2.01056E-04  2.54596E-03  1.40967E+00  3.65873E-03  3.51933E-05  1.14732E-05 -1.97291E-05  1.50000E+01
  2.07514E+01  2.04051E+01  1.97112E+01 -2.91428E-01  3.96239E-01  1.40045E-01 -5.39218E-01  1.50474E-05 -3.35308E-04 -1.78849E-04  1.61931E-03  1.24997E+00  2.25043E-03  3.60404E-05  7.89165E-06 -2.17987E-05  1.50000E+01
  2.05313E+01  2.03702E+01  2.01155E+01 -3.83255E-01  2.29937E-01 -3.25645E-02 -2.40355E-01  1.76034E-05 -2.12555E-04  4.91172E-05 -1.15807E-03  6.76537E-01 -4.20259E-04  3.60126E-05 -1.37173E-06  8.49120E-06  1.50000E+01
  2.05110E+01  2.03741E+01  2.01269E+01 -3.89706E-01  2.07823E-01 -3.23562E-02 -2.79630E-01  1.93358E-05 -2.13961E-04  5.33292E-05 -1.27790E-03  6.04087E-01 -3.18289E-04  3.69148E-05 -1.17278E-06  8.24501E-06  1.50000E+01
  2.03639E+01  2.03797E+01  2.01027E+01 -4.20029E-01  1.50399E-01 -9.49114E-03 -2.90189E-01  3.01931E-05 -3.16959E-04  6.19167E-05 -3.31795E-04  5.19144E-01 -2.53344E-03  5.28606E-05 -2.87505E-06  4.74366E-06  1.50000E+01
  2.03422E+01  2.03789E+01  2.00891E+01 -4.22851E-01  1.49747E-01 -5.81041E-03 -2.84112E-01  2.79649E-05 -3.14054E-04  5.30654E-05 -6.02941E-05  5.14170E-01 -3.08189E-03  5.11316E-05 -3.19979E-06  3.20354E-06  1.50000E+01
  2.01097E+01  2.02912E+01  2.02248E+01 -5.43066E-02 -9.10341E-01  0.00000E+00 -1.00746E+00  1.74109E-04 -1.08179E-04 -1.03334E-04 -1.70282E+00  1.58059E+01 -2.00579E+01  2.58114E-05  2.57823E-05  2.57411E-06  1.50000E+01
  2.09102E+01  2.04241E+01  1.96820E+01 -2.50454E-01  5.75573E-01  1.95359E-01 -1.83164E-01  3.18937E-05 -1.02509E-04 -7.48917E-05  8.71235E-03  9.54802E-01  1.63701E-02  2.15174E-05  7.16371E-06 -8.52736E-06  1.50000E+01
  2.08899E+01  2.04295E+01  1.96697E+01 -2.56436E-01  5.43436E-01  1.91999E-01 -5.24165E-01  6.43096E-05 -2.31664E-04 -1.67062E-04  2.16988E-03  1.72220E+00  3.60858E-03  4.09308E-05  1.47371E-05 -1.77078E-05  1.50000E+01
  2.07705E+01  2.04231E+01  1.96726E+01 -2.85418E-01  3.90137E-01  1.58341E-01 -6.22203E-01  2.55760E-05 -3.54459E-04 -2.10145E-04  2.30748E-03  1.23352E+00  3.17529E-03  3.53357E-05  1.01926E-05 -2.13149E-05  1.50000E+01
  2.07508E+01  2.04170E+01  1.96861E+01 -2.91910E-01  3.74101E-01  1.48517E-01 -6.05429E-01  1.68755E-05 -3.52552E-04 -1.99594E-04  1.88905E-03  1.18130E+00  2.68828E-03  3.57737E-05  9.04464E-06 -2.20355E-05  1.50000E+01
  2.03841E+01  2.03691E+01  1.99836E+01 -4.16064E-01  1.64936E-01  2.69883E-03 -3.05773E-01  2.25656E-05 -2.95827E-04 -8.76634E-06 -7.58526E-04  5.33471E-01  1.91431E-04  4.13675E-05 -2.57833E-06 -8.31503E-07  1.50000E+01
  2.05108E+01  2.03796E+01  2.01511E+01 -3.90230E-01  1.98274E-01 -3.77386E-02 -3.36681E-01  2.00380E-05 -2.41234E-04  7.12084E-05 -1.17476E-03  5.87002E-01 -8.62255E-06  3.98873E-05 -3.15388E-07  1.14140E-05  1.50000E+01
  2.03854E+01  2.03931E+01  2.01676E+01 -4.18241E-01  1.32306E-01 -1.66419E-02 -2.80147E-01  2.49544E-05 -3.09173E-04  9.28002E-05  5.11357E-04  4.45992E-01 -5.60601E-03  4.81740E-05 -1.61308E-06  6.79733E-06  1.50000E+01
  2.04065E+01  2.03955E+01  2.01811E+01 -4.15034E-01  1.35474E-01 -2.29424E-02 -3.05429E-01  2.36878E-05 -3.05710E-04  9.96146E-05  9.95070E-05  4.45429E-01 -4.56288E-03  4.74464E-05 -7.76356E-07  9.14176E-06  1.50000E+01
  2.01264E+01  2.03384E+01  2.01800E+01 -1.41007E-01 -8.31143E-01  1.21361E-02 -5.09663E-01  2.82511E-04 -2.46869E-04 -1.33520E-04  2.20693E-02 -2.65504E+00 -8.92182E-03  4.32402E-05  3.59137E-05  2.00871E-06  1.50000E+01
  2.01080E+01  2.03285E+01  2.01671E+01 -1.18684E-01 -8.62911E-01  6.27887E-03 -3.83134E-01  2.94470E-04 -2.43115E-04 -1.35428E-04  1.96753E-02 -2.72957E+00 -7.99593E-03  4.38339E-05  3.83210E-05  1.78662E-06  1.50000E+01
  2.08289E+01  2.04462E+01  1.96337E+01 -2.74435E-01  4.34044E-01  1.82864E-01 -6.49697E-01  5.82383E-05 -3.20824E-04 -2.24045E-04  2.83589E-03  1.37686E+00  4.70688E-03  3.59586E-05  1.44417E-05 -1.93422E-05  1.50000E+01
  2.03202E+01  2.03738E+01  2.00239E+01 -4.25017E-01  1.61722E-01 -8.11435E-04 -2.97262E-01  2.16187E-05 -3.06039E-04  1.40366E-05 -2.75850E-04  5.42081E-01 -9.20392E-04  4.51261E-05 -3.42232E-06  4.00169E-07  1.50000E+01
  2.03204E+01  2.03756E+01  2.00499E+01 -4.25187E-01  1.56992E-01 -2.03193E-03 -2.88983E-01  2.37491E-05 -3.07072E-04  2.91694E-05 -9.14621E-05  5.32417E-01 -2.07078E-03  4.73946E-05 -3.47643E-06  1.17861E-06  1.50000E+01
  2.05313E+01  2.03660E+01  2.00910E+01 -3.82687E-01  2.37447E-01 -2.60793E-02 -3.08101E-01  1.64665E-05 -2.24322E-04  4.13025E-05 -1.04254E-03  6.96220E-01 -4.08468E-04  3.55299E-05 -1.82151E-06  7.32497E-06  1.50000E+01
  2.05312E+01  2.03627E+01  2.00664E+01 -3.82097E-01  2.43163E-01 -1.93267E-02 -2.89967E-01  1.68994E-05 -2.29866E-04  3.17927E-05 -8.26826E-04  7.16532E-01 -3.52244E-04  3.61860E-05 -2.28793E-06  6.19584E-06  1.50000E+01
  2.03427E+01  2.03956E+01  2.01657E+01 -4.25475E-01  9.88691E-02 -7.70339E-04 -2.49879E-01  2.84225E-05 -3.16660E-04  8.95154E-05  4.57353E-04  3.59372E-01 -9.84880E-03  4.85619E-05 -1.57424E-06  5.07013E-06  1.50000E+01
  2.03215E+01  2.03999E+01  2.01777E+01 -4.29886E-01  4.59753E-02  1.56493E-02 -2.58753E-01  3.85401E-05 -3.35890E-04  9.32225E-05 -3.63376E-03  2.02014E-01 -1.05673E-02  5.04059E-05  7.86338E-08  6.29676E-06  1.50000E+01
  2.03428E+01  2.04025E+01  2.01906E+01 -4.27378E-01  6.52478E-02  6.54145E-03 -2.67811E-01  3.24440E-05 -3.34024E-04  1.01705E-04 -1.78820E-03  2.58842E-01 -1.14714E-02  4.81643E-05 -1.40273E-07  6.85948E-06  1.50000E+01
  2.07311E+01  2.04116E+01  1.96999E+01 -2.99516E-01  3.57978E-01  1.38323E-01 -5.58392E-01  1.01914E-05 -3.44393E-04 -1.86627E-04  1.38324E-03  1.12937E+00  2.27572E-03  3.59540E-05  7.94118E-06 -2.24242E-05  1.50000E+01
  2.03631E+01  2.03707E+01  2.00234E+01 -4.19542E-01  1.62711E-01 -1.98471E-03 -2.82839E-01  2.31139E-05 -2.98772E-04  1.36770E-05 -9.42478E-04  5.41021E-01 -2.41449E-04  4.32916E-05 -2.84359E-06  7.50036E-07  1.50000E+01
  2.03629E+01  2.03702E+01  1.99971E+01 -4.19419E-01  1.63561E-01  8.88629E-04 -2.69400E-01  2.26538E-05 -2.98305E-04 -1.32215E-06 -8.22682E-04  5.35267E-01  6.73610E-05  4.26729E-05 -2.82768E-06 -1.46398E-07  1.50000E+01
  2.05311E+01  2.03605E+01  2.00416E+01 -3.81588E-01  2.47028E-01 -1.23510E-02 -2.76272E-01  1.75659E-05 -2.29850E-04  2.06743E-05 -6.18287E-04  7.35660E-01 -2.83720E-04  3.71318E-05 -2.70656E-06  4.76341E-06  1.50000E+01
  2.08095E+01  2.04376E+01  1.96463E+01 -2.76567E-01  4.20534E-01  1.75834E-01 -6.26107E-01  4.70919E-05 -3.36234E-04 -2.21356E-04  2.81387E-03  1.33269E+00  4.27456E-03  3.48971E-05  1.27179E-05 -1.97333E-05  1.50000E+01
  2.07901E+01  2.04299E+01  1.96593E+01 -2.80250E-01  4.05758E-01  1.67551E-01 -6.37000E-01  3.62085E-05 -3.47901E-04 -2.17143E-04  2.64344E-03  1.28461E+00  3.74235E-03  3.52823E-05  1.15059E-05 -2.07160E-05  1.50000E+01
  2.03425E+01  2.03836E+01  2.01150E+01 -4.23261E-01  1.38793E-01 -6.08821E-03 -2.56627E-01  2.85212E-05 -3.13679E-04  6.71278E-05  4.93599E-04  4.80610E-01 -4.95381E-03  5.14051E-05 -2.89287E-06  4.11933E-06  1.50000E+01
  2.03209E+01  2.03826E+01  2.01017E+01 -4.25914E-01  1.34989E-01 -1.82803E-03 -2.42592E-01  2.92769E-05 -3.10847E-04  5.86206E-05  7.03541E-04  4.71582E-01 -5.62029E-03  5.20008E-05 -3.18399E-06  3.20286E-06  1.50000E+01
  2.05716E+01  2.03556E+01  1.99902E+01 -3.67776E-01  2.89825E-01  2.75310E-03 -2.26102E-01  1.27368E-05 -2.24342E-04 -4.68937E-06 -4.75684E-04  8.82138E-01 -4.43993E-06  3.42878E-05 -3.13204E-06 -9.64032E-07  1.50000E+01
  2.05511E+01  2.03578E+01  1.99780E+01 -3.74696E-01  2.68191E-01  6.37813E-03 -2.42258E-01  1.52971E-05 -2.28691E-04 -1.09124E-05 -4.72967E-04  8.17964E-01  7.36157E-06  3.61505E-05 -3.04229E-06 -2.49980E-06  1.50000E+01
  2.05513E+01  2.03573E+01  2.00034E+01 -3.74700E-01  2.69163E-01 -1.54842E-03 -2.42809E-01  1.48470E-05 -2.26727E-04  1.57296E-06 -4.96506E-04  8.14940E-01 -1.06258E-04  3.55206E-05 -3.08457E-06  3.82300E-07  1.50000E+01
  2.08085E+01  2.04520E+01  1.96220E+01 -2.80687E-01  3.92801E-01  1.79390E-01 -6.57679E-01  5.44096E-05 -3.44012E-04 -2.37785E-04  3.03192E-03  1.24636E+00  4.89808E-03  3.51864E-05  1.39420E-05 -1.95763E-05  1.50000E+01
  2.05312E+01  2.03814E+01  2.01642E+01 -3.84226E-01  2.09819E-01 -4.46949E-02 -3.34997E-01  1.95578E-05 -2.41191E-04  7.83479E-05 -1.22577E-03  6.28197E-01 -1.54196E-04  4.06224E-05  2.84153E-07  1.38365E-05  1.50000E+01
  2.05313E+01  2.03753E+01  2.01399E+01 -3.83763E-01  2.20693E-01 -3.87625E-02 -2.99981E-01  1.83783E-05 -2.26424E-04  6.23736E-05 -1.19488E-03  6.54841E-01 -3.64793E-04  3.83514E-05 -8.14602E-07  1.03488E-05  1.50000E+01
  2.03206E+01  2.03785E+01  2.00759E+01 -4.25442E-01  1.48456E-01 -2.55373E-03 -2.67302E-01  2.76330E-05 -3.08416E-04  4.43140E-05  2.77495E-04  5.10291E-01 -3.60978E-03  5.11828E-05 -3.50769E-06  2.32820E-06  1.50000E+01
  2.03640E+01  2.04053E+01  2.02036E+01 -4.24502E-01  8.09200E-02 -2.97033E-03 -2.72301E-01  2.90213E-05 -3.30993E-04  1.09617E-04 -6.72857E-04  3.03270E-01 -1.17474E-02  4.76482E-05 -2.61617E-08  8.17463E-06  1.50000E+01
  2.03851E+01  2.04082E+01  2.02167E+01 -4.21273E-01  9.32702E-02 -1.26698E-02 -2.63886E-01  2.37905E-05 -3.28129E-04  1.14999E-04 -1.49698E-04  3.35951E-01 -1.14295E-02  4.45081E-05 -1.14602E-07  7.87584E-06  1.50000E+01
  2.03853E+01  2.04004E+01  2.01923E+01 -4.19526E-01  1.16355E-01 -1.59122E-02 -2.93022E-01  2.45844E-05 -3.22944E-04  1.08203E-04  6.31781E-04  4.00260E-01 -8.45470E-03  4.83416E-05 -5.77680E-07  9.13492E-06  1.50000E+01
  2.00900E+01  2.03183E+01  2.01542E+01 -9.78912E-02 -8.92484E-01  2.09036E-03 -2.90145E-01  3.06046E-04 -2.39649E-04 -1.33340E-04  1.62607E-02 -2.78832E+00 -6.44831E-03  4.47468E-05  4.14775E-05  5.85019E-07  1.50000E+01
  2.00776E+01  2.03002E+01  2.01655E+01 -6.61538E-02 -9.24405E-01 -1.16843E-03 -4.75054E-01  3.98335E-04 -3.02761E-04 -2.05171E-04  1.12225E-02 -2.85558E+00 -4.54968E-03  4.61931E-05  4.65777E-05 -2.50869E-07  1.50000E+01