 TITLE="3D TRIANGULAR SURFACE DATA"
VARIABLES="X","Y","Z","U","V","W","P", "Fex", "Fey", "Fez","Finx","Finy","Finz","WSSx","WSSy","WSSz","AMForce"
 ZONE T="unstruc"N=        1757 E=        3355 F=FEPOINT  ET=TRIANGLE
  2.03417E+01  1.97597E+01  2.00987E+01  8.87516E-02  1.19098E+00  2.03136E-03 -1.24484E+00 -5.70615E-04 -7.20133E-04  1.55242E-04  1.74209E-02  4.94550E+00 -1.45126E-03  3.94382E-05 -3.72405E-05 -7.43012E-06  1.50000E+01
  2.03587E+01  1.97449E+01  2.00989E+01  6.48917E-02  1.15764E+00  4.58925E-03 -1.27725E+00 -2.70894E-04 -3.59636E-04  7.17178E-05  6.08999E-03  2.25344E+00 -4.27608E-03  1.91811E-05 -1.73685E-05 -4.22908E-06  1.50000E+01
  2.03535E+01  1.97450E+01  2.00775E+01  6.55927E-02  1.15695E+00  3.40444E-03 -1.35705E+00 -3.91459E-04 -5.23652E-04  8.02106E-05  1.65835E-02  3.33427E+00 -4.13799E-03  2.86451E-05 -2.52935E-05 -5.22692E-06  1.50000E+01
  2.03421E+01  1.97681E+01  2.01301E+01  9.90708E-02  1.20679E+00  1.30196E-03 -1.12809E+00 -4.71233E-04 -5.79646E-04  1.67306E-04  1.30370E-02  4.22154E+00 -2.00023E-03  3.27749E-05 -3.23515E-05 -6.17071E-06  1.50000E+01
  2.03573E+01  1.97514E+01  2.01202E+01  7.69457E-02  1.17526E+00  4.63098E-03 -1.19491E+00 -3.88465E-04 -5.01165E-04  1.26618E-04  1.32506E-02  3.36387E+00 -2.67612E-03  2.77053E-05 -2.61592E-05 -5.94546E-06  1.50000E+01
  2.03715E+01  1.97369E+01  2.01111E+01  4.79547E-02  1.13489E+00  9.07401E-03 -1.22252E+00 -3.33758E-04 -4.62942E-04  9.81512E-05  1.30118E-02  2.80153E+00 -3.33653E-03  2.48397E-05 -2.19365E-05 -6.14795E-06  1.50000E+01
  2.03696E+01  1.97333E+01  2.00869E+01  3.94275E-02  1.12126E+00  8.00656E-03 -1.38982E+00 -3.44498E-04 -4.89202E-04  7.77901E-05  1.24209E-02  2.78253E+00 -1.75795E-03  2.57148E-05 -2.16171E-05 -5.41309E-06  1.50000E+01
  2.03502E+01  1.97438E+01  2.00502E+01  6.29453E-02  1.15314E+00  2.45112E-03 -1.30812E+00 -4.21447E-04 -5.72420E-04  5.65769E-05  1.45327E-02  3.61940E+00 -1.14402E-03  3.13912E-05 -2.67907E-05 -4.16441E-06  1.50000E+01
  2.03362E+01  1.97582E+01  2.00669E+01  8.62474E-02  1.18678E+00  1.60924E-03 -1.20046E+00 -4.75853E-04 -6.11028E-04  8.90920E-05  1.20069E-02  4.19291E+00  1.79517E-04  3.36366E-05 -3.05751E-05 -5.13891E-06  1.50000E+01
  2.03335E+01  1.97569E+01  2.00377E+01  8.41831E-02  1.18367E+00  8.97340E-04 -1.20050E+00 -4.49987E-04 -5.82779E-04  4.72320E-05  1.18351E-02  3.93175E+00 -1.79217E-04  3.14731E-05 -2.78044E-05 -3.22376E-06  1.50000E+01
  2.03588E+01  1.97583E+01  2.01466E+01  8.78321E-02  1.19168E+00  4.08640E-03 -1.11733E+00 -4.04544E-04 -5.09676E-04  1.59438E-04  1.43955E-02  3.66830E+00 -2.62483E-03  2.91715E-05 -2.87524E-05 -6.38611E-06  1.50000E+01
  2.03730E+01  1.97423E+01  2.01358E+01  6.03550E-02  1.15330E+00  9.24754E-03 -1.16881E+00 -3.79101E-04 -5.08593E-04  1.36091E-04  1.56193E-02  3.27993E+00 -3.88184E-03  2.80680E-05 -2.60783E-05 -7.13455E-06  1.50000E+01
  2.03069E+01  1.97918E+01  2.00979E+01  1.15083E-01  1.23285E+00 -7.85173E-04 -1.19514E+00 -4.76163E-04 -5.65646E-04  1.35792E-04  7.58734E-03  4.37903E+00 -8.07098E-04  3.18167E-05 -3.16920E-05 -4.96940E-06  1.50000E+01
  2.03041E+01  1.97878E+01  2.00686E+01  1.12396E-01  1.22793E+00 -3.07205E-04 -1.14699E+00 -4.83023E-04 -5.79407E-04  9.71586E-05  7.28018E-03  4.29768E+00 -5.63624E-04  3.11302E-05 -3.00186E-05 -4.06969E-06  1.50000E+01
  2.02897E+01  1.98046E+01  2.00830E+01  1.19421E-01  1.24201E+00 -7.80002E-04 -1.13241E+00 -4.64799E-04 -5.44505E-04  1.15517E-04  5.56573E-03  4.24926E+00 -3.56707E-04  3.00066E-05 -2.99205E-05 -4.15310E-06  1.50000E+01
  2.03247E+01  1.97792E+01  2.01133E+01  1.08143E-01  1.22067E+00 -2.60257E-04 -1.17741E+00 -5.13818E-04 -6.20033E-04  1.64088E-04  1.09082E-02  4.60422E+00 -1.84499E-03  3.44453E-05 -3.41347E-05 -5.94099E-06  1.50000E+01
  2.03101E+01  1.97975E+01  2.01266E+01  1.18441E-01  1.23960E+00 -1.53702E-03 -1.17475E+00 -4.55171E-04 -5.32544E-04  1.66640E-04  7.51274E-03  4.28776E+00 -1.18811E-03  3.13067E-05 -3.24154E-05 -5.40051E-06  1.50000E+01
  2.03276E+01  1.97861E+01  2.01422E+01  1.13585E-01  1.23062E+00 -1.13007E-03 -1.12174E+00 -4.50285E-04 -5.31630E-04  1.79688E-04  9.53342E-03  4.19841E+00 -2.14072E-03  3.10050E-05 -3.21119E-05 -5.63661E-06  1.50000E+01
  2.03217E+01  1.97744E+01  2.00833E+01  1.03576E-01  1.21319E+00  2.35238E-04 -1.16575E+00 -5.14140E-04 -6.31637E-04  1.22444E-04  1.04374E-02  4.59612E+00 -1.36601E-03  3.46583E-05 -3.31102E-05 -5.43658E-06  1.50000E+01
  2.03188E+01  1.97718E+01  2.00535E+01  1.00954E-01  1.20887E+00  3.64573E-04 -1.16907E+00 -4.79414E-04 -5.93623E-04  7.37387E-05  9.66056E-03  4.19884E+00 -4.44944E-04  3.14508E-05 -2.91259E-05 -3.55547E-06  1.50000E+01
  2.03853E+01  1.97233E+01  2.00990E+01  1.02940E-02  1.08098E+00  1.48883E-02 -1.27981E+00 -3.67836E-04 -5.58244E-04  9.40216E-05  1.56733E-02  2.94927E+00 -2.11952E-03  2.90094E-05 -2.32490E-05 -7.06959E-06  1.50000E+01
  2.03834E+01  1.97205E+01  2.00733E+01  6.54965E-04  1.06539E+00  1.19657E-02 -1.41465E+00 -4.08253E-04 -6.31694E-04  7.60235E-05  1.47340E-02  3.01203E+00 -1.26541E-03  3.10354E-05 -2.36627E-05 -5.77609E-06  1.50000E+01
  2.03873E+01  1.97274E+01  2.01244E+01  2.31815E-02  1.10123E+00  1.63142E-02 -1.18989E+00 -3.73889E-04 -5.47746E-04  1.20706E-04  1.61603E-02  3.08617E+00 -3.64809E-03  2.89663E-05 -2.47005E-05 -8.23091E-06  1.50000E+01
  2.03668E+01  1.97317E+01  2.00616E+01  3.51483E-02  1.11390E+00  5.79311E-03 -1.38097E+00 -4.00841E-04 -5.77095E-04  6.34797E-05  1.69386E-02  3.21939E+00 -2.10864E-03  3.06836E-05 -2.49405E-05 -4.84625E-06  1.50000E+01
  2.03816E+01  1.97188E+01  2.00468E+01 -5.69933E-03  1.05503E+00  7.78710E-03 -1.57685E+00 -4.47497E-04 -7.02407E-04  5.28933E-05  1.51637E-02  3.14525E+00 -9.85605E-04  3.34700E-05 -2.46019E-05 -3.97949E-06  1.50000E+01
  2.03171E+01  1.97705E+01  2.00243E+01  9.94725E-02  1.20659E+00  1.76200E-04 -1.17159E+00 -4.76611E-04 -5.91133E-04  3.33811E-05  9.08123E-03  4.03077E+00 -9.77229E-06  2.99067E-05 -2.71391E-05 -1.93102E-06  1.50000E+01
  2.03485E+01  1.97430E+01  2.00220E+01  6.09537E-02  1.15044E+00  9.02524E-04 -1.23437E+00 -4.22566E-04 -5.79251E-04  2.48991E-05  1.37735E-02  3.66890E+00 -2.86691E-04  3.18871E-05 -2.66091E-05 -2.36375E-06  1.50000E+01
  2.03323E+01  1.97563E+01  2.00090E+01  8.31873E-02  1.18236E+00  1.08624E-05 -1.20553E+00 -4.42753E-04 -5.75092E-04  1.13442E-05  1.11878E-02  3.85165E+00  1.36411E-04  3.06084E-05 -2.66698E-05 -9.56565E-07  1.50000E+01
  2.03139E+01  1.98045E+01  2.01544E+01  1.21785E-01  1.24775E+00 -2.45940E-03 -1.11076E+00 -4.30726E-04 -4.93685E-04  1.91241E-04  7.13953E-03  4.14422E+00 -1.46882E-03  3.00051E-05 -3.23956E-05 -5.48625E-06  1.50000E+01
  2.03314E+01  1.97937E+01  2.01695E+01  1.18379E-01  1.24129E+00 -2.14964E-03 -1.13176E+00 -4.20633E-04 -4.85114E-04  1.99002E-04  8.55342E-03  4.03859E+00 -2.08192E-03  2.93592E-05 -3.18401E-05 -5.66027E-06  1.50000E+01
  2.07024E+01  1.96396E+01  1.96976E+01 -3.55821E-01  2.09030E-01 -2.05113E-01 -8.80328E-01 -1.16697E-05 -4.79078E-04  6.26031E-05 -1.13717E-02  6.13889E-01 -3.61799E-03  3.30988E-05 -2.87454E-06  2.97537E-06  1.50000E+01
  2.06812E+01  1.96429E+01  1.97097E+01 -3.54060E-01  2.16771E-01 -2.01530E-01 -9.40980E-01 -1.20794E-05 -4.73322E-04  5.36591E-05 -1.30644E-02  6.34694E-01 -5.26661E-03  3.26076E-05 -2.86358E-06  3.74155E-06  1.50000E+01
  2.07008E+01  1.96432E+01  1.97240E+01 -3.67627E-01  1.19406E-01 -1.80694E-01 -7.88939E-01  1.12216E-05 -4.08658E-04  6.30407E-05 -7.71175E-03  3.34346E-01  2.91140E-04  3.46166E-05 -1.73864E-06  2.66154E-06  1.50000E+01
  2.06796E+01  1.96461E+01  1.97362E+01 -3.66224E-01  1.23910E-01 -1.77534E-01 -8.42223E-01  9.95073E-06 -4.26069E-04  5.81228E-05 -8.96526E-03  3.44231E-01 -8.71969E-04  3.39098E-05 -1.67883E-06  3.19962E-06  1.50000E+01
  2.06993E+01  1.96473E+01  1.97503E+01 -3.76059E-01  4.32788E-02 -1.56664E-01 -7.21306E-01  2.46388E-05 -3.66440E-04  6.07776E-05 -4.94310E-03  9.91842E-02  2.59515E-03  3.44516E-05 -7.49199E-07  1.77692E-06  1.50000E+01
  2.07663E+01  1.96279E+01  1.96623E+01 -3.58806E-01  2.08097E-01 -2.15488E-01 -3.91254E-01  7.64379E-06 -2.74730E-04  4.82894E-05 -9.20512E-03  6.20810E-01 -1.22040E-03  3.67388E-05 -3.65846E-06  2.68798E-06  1.50000E+01
  2.07450E+01  1.96321E+01  1.96739E+01 -3.58029E-01  2.05725E-01 -2.12021E-01 -7.16978E-01 -6.23444E-06 -4.21252E-04  6.85428E-05 -9.45641E-03  6.10723E-01 -1.64033E-03  3.63427E-05 -3.31299E-06  3.29718E-06  1.50000E+01
  2.07646E+01  1.96328E+01  1.96882E+01 -3.70484E-01  1.25178E-01 -1.90616E-01 -4.99327E-01  1.65352E-05 -2.75495E-04  5.48270E-05 -6.13193E-03  3.63821E-01  1.77273E-03  3.78910E-05 -2.77695E-06  1.54781E-06  1.50000E+01
  2.03897E+01  1.97327E+01  2.01501E+01  3.81761E-02  1.12423E+00  1.65063E-02 -1.21240E+00 -3.93070E-04 -5.52752E-04  1.52264E-04  1.67052E-02  3.30036E+00 -4.43615E-03  2.95378E-05 -2.65949E-05 -8.24363E-06  1.50000E+01
  2.07630E+01  1.96381E+01  1.97141E+01 -3.79029E-01  5.52946E-02 -1.66570E-01 -4.46244E-01  2.54988E-05 -2.44192E-04  5.17089E-05 -3.93372E-03  1.48292E-01  3.31539E-03  3.79689E-05 -1.93944E-06  5.63516E-07  1.50000E+01
  2.07844E+01  1.96343E+01  1.97023E+01 -3.79946E-01  6.12367E-02 -1.70159E-01 -3.77717E-01  2.72184E-05 -1.92398E-04  4.29107E-05 -3.94918E-03  1.69038E-01  3.30516E-03  3.92837E-05 -2.48399E-06  3.08177E-07  1.50000E+01
  2.03976E+01  1.97068E+01  2.00323E+01 -5.66631E-02  9.76923E-01  8.38778E-03 -1.59198E+00 -4.11657E-04 -7.31580E-04  3.37319E-05  9.49110E-03  2.94969E+00 -2.01569E-05  3.48892E-05 -2.26552E-05 -2.79255E-06  1.50000E+01
  2.03806E+01  1.97179E+01  2.00195E+01 -9.41675E-03  1.04929E+00  2.89749E-03 -1.70532E+00 -3.99052E-04 -6.42483E-04  2.03405E-05  1.36968E-02  3.21085E+00 -3.19044E-04  3.49759E-05 -2.51678E-05 -2.08295E-06  1.50000E+01
  2.03448E+01  1.97756E+01  2.01579E+01  1.06645E-01  1.22020E+00  2.81844E-04 -1.11948E+00 -4.23534E-04 -5.07278E-04  1.83232E-04  1.11953E-02  3.95189E+00 -2.53675E-03  2.97237E-05 -3.07478E-05 -5.82304E-06  1.50000E+01
  2.03488E+01  1.97834E+01  2.01845E+01  1.13087E-01  1.23344E+00 -9.72077E-04 -1.10106E+00 -4.05110E-04 -4.72403E-04  2.03026E-04  9.94472E-03  3.90930E+00 -2.63000E-03  2.87016E-05 -3.11279E-05 -5.80364E-06  1.50000E+01
  2.03620E+01  1.97655E+01  2.01730E+01  9.71805E-02  1.20762E+00  2.90368E-03 -1.10546E+00 -4.01940E-04 -4.90909E-04  1.85805E-04  1.28132E-02  3.74678E+00 -3.20079E-03  2.88485E-05 -2.96926E-05 -6.11412E-06  1.50000E+01
  2.03164E+01  1.97703E+01  1.99956E+01  9.92390E-02  1.20632E+00 -1.80141E-04 -1.17300E+00 -4.70728E-04 -5.83598E-04 -5.15485E-06  8.80013E-03  3.94278E+00  2.84069E-04  2.89865E-05 -2.61422E-05  2.26316E-07  1.50000E+01
  2.03479E+01  1.97430E+01  1.99938E+01  6.07404E-02  1.15038E+00 -9.36405E-04 -1.24593E+00 -4.17807E-04 -5.74077E-04 -6.66753E-06  1.30484E-02  3.66206E+00  2.57502E-04  3.17198E-05 -2.63173E-05  7.14838E-07  1.50000E+01
  2.03321E+01  1.97568E+01  1.99806E+01  8.38366E-02  1.18349E+00 -9.42450E-04 -1.20968E+00 -4.36340E-04 -5.66191E-04 -2.30156E-05  1.08799E-02  3.80440E+00  4.88730E-04  3.02190E-05 -2.63923E-05  1.55217E-06  1.50000E+01
  2.07178E+01  1.96540E+01  1.97903E+01 -3.88274E-01 -6.83513E-02 -1.16103E-01 -5.01904E-01  3.86204E-05 -2.55774E-04  4.74219E-05 -1.75166E-03 -2.38158E-01  4.05511E-03  3.51920E-05  6.07336E-07  1.13481E-06  1.50000E+01
  2.07390E+01  1.96518E+01  1.97779E+01 -3.89561E-01 -6.09406E-02 -1.19588E-01 -4.36539E-01  3.66332E-05 -2.25522E-04  4.51683E-05 -1.68573E-03 -2.11882E-01  4.03743E-03  3.59522E-05  1.18333E-07  3.55358E-07  1.50000E+01
  2.07191E+01  1.96493E+01  1.97642E+01 -3.83423E-01 -1.65992E-02 -1.37093E-01 -6.15933E-01  3.27005E-05 -2.97156E-04  5.55697E-05 -2.76628E-03 -8.00396E-02  3.89565E-03  3.51341E-05 -1.65339E-07  1.00847E-06  1.50000E+01
  2.04021E+01  1.97136E+01  2.01119E+01 -2.52532E-02  1.03001E+00  2.49069E-02 -1.28221E+00 -3.77833E-04 -6.22852E-04  1.08954E-04  1.40145E-02  2.98258E+00 -1.70287E-03  3.14832E-05 -2.36252E-05 -8.15375E-06  1.50000E+01
  2.01158E+01  2.00370E+01  2.01915E+01  4.68939E-02  1.25058E+00 -3.05486E-04 -8.11507E-01 -3.17346E-04 -3.85907E-04  2.59686E-04  1.84368E-03  3.92632E+00 -3.47316E-04  4.57590E-05 -5.17894E-05 -3.26846E-06  1.50000E+01
  2.01041E+01  2.00580E+01  2.02020E+01  3.48110E-02  1.24622E+00 -2.02311E-04 -6.78870E-01 -2.59228E-04 -3.57665E-04  2.41686E-04  1.49190E-03  3.91342E+00 -3.15502E-04  5.65050E-05 -6.31575E-05 -3.17643E-06  1.50000E+01
  2.01229E+01  2.00487E+01  2.02149E+01  3.95298E-02  1.25514E+00 -1.29123E-04 -7.43504E-01 -2.51113E-04 -3.47859E-04  2.40193E-04  1.49760E-03  3.95174E+00 -2.38221E-04  5.59204E-05 -6.62720E-05 -5.50259E-06  1.50000E+01
  2.07815E+01  1.96462E+01  1.97536E+01 -3.91811E-01 -4.46588E-02 -1.27012E-01 -2.61511E-01  3.44990E-05 -1.49948E-04  3.46972E-05 -1.56423E-03 -1.56662E-01  3.86249E-03  3.76276E-05 -8.39317E-07  9.50016E-08  1.50000E+01
  2.08028E+01  1.96428E+01  1.97418E+01 -3.92851E-01 -3.72859E-02 -1.30899E-01 -1.48670E-01  1.76811E-05 -6.51527E-05  1.53703E-05 -8.16597E-03 -1.00050E-01  1.46422E-02  1.97477E-05 -7.49084E-07 -3.19943E-07  1.50000E+01
  2.07829E+01  1.96403E+01  1.97280E+01 -3.86523E-01  3.64232E-03 -1.47711E-01 -3.30165E-01  3.23554E-05 -1.69185E-04  3.85936E-05 -2.45631E-03 -8.12011E-03  3.84145E-03  3.90619E-05 -1.73744E-06 -3.12695E-07  1.50000E+01
  2.07205E+01  1.96446E+01  1.97381E+01 -3.77146E-01  4.53141E-02 -1.59802E-01 -6.42216E-01  2.38037E-05 -3.39988E-04  6.26681E-05 -4.41212E-03  1.09953E-01  3.02721E-03  3.49564E-05 -9.18540E-07  1.89999E-06  1.50000E+01
  2.07403E+01  1.96467E+01  1.97519E+01 -3.84517E-01 -1.04807E-02 -1.40471E-01 -5.04036E-01  3.10953E-05 -2.64542E-04  5.38375E-05 -2.59759E-03 -5.72765E-02  3.94619E-03  3.57210E-05 -5.55534E-07  7.45285E-07  1.50000E+01
  2.03166E+01  1.97714E+01  1.99673E+01  1.00354E-01  1.20814E+00 -5.40793E-04 -1.17963E+00 -4.53702E-04 -5.62505E-04 -4.16866E-05  8.75725E-03  3.89449E+00  5.17571E-04  2.89004E-05 -2.63528E-05  2.11655E-06  1.50000E+01
  2.03021E+01  1.97855E+01  2.00395E+01  1.10711E-01  1.22491E+00 -5.36787E-05 -1.14755E+00 -4.94099E-04 -5.93278E-04  5.72672E-05  7.11273E-03  4.15515E+00 -1.48166E-04  2.97091E-05 -2.79238E-05 -2.56102E-06  1.50000E+01
  2.03010E+01  1.97845E+01  2.00106E+01  1.09997E-01  1.22366E+00 -6.03119E-06 -1.15245E+00 -5.10260E-04 -6.10890E-04  1.64595E-05  6.96156E-03  4.05475E+00  1.25567E-04  2.86679E-05 -2.66047E-05 -7.81744E-07  1.50000E+01
  2.07468E+01  1.96283E+01  1.96477E+01 -3.41856E-01  3.04700E-01 -2.36252E-01 -5.76563E-01 -2.39542E-05 -4.36810E-04  5.60145E-05 -1.32938E-02  9.20725E-01 -6.68671E-03  3.59998E-05 -4.63065E-06  4.30804E-06  1.50000E+01
  2.06782E+01  1.96497E+01  1.97627E+01 -3.74769E-01  4.48731E-02 -1.53642E-01 -8.35565E-01  2.49801E-05 -3.97461E-04  5.81052E-05 -5.77149E-03  9.95399E-02  1.84370E-03  3.45346E-05 -6.86848E-07  1.82054E-06  1.50000E+01
  2.06980E+01  1.96515E+01  1.97766E+01 -3.82212E-01 -2.06848E-02 -1.33890E-01 -6.46633E-01  3.48068E-05 -3.24676E-04  5.50274E-05 -3.04807E-03 -9.69327E-02  3.67304E-03  3.50786E-05  1.17565E-07  1.39761E-06  1.50000E+01
  2.02874E+01  1.98012E+01  2.00542E+01  1.17868E-01  1.23863E+00 -3.59060E-04 -1.13119E+00 -4.89764E-04 -5.75172E-04  7.97803E-05  5.42895E-03  4.19377E+00 -1.92063E-04  2.94217E-05 -2.84982E-05 -2.94149E-06  1.50000E+01
  2.02711E+01  1.98149E+01  2.00399E+01  1.21002E-01  1.24647E+00 -2.38122E-04 -1.15365E+00 -5.11862E-04 -5.90926E-04  6.26454E-05  4.29715E-03  4.13865E+00 -3.24898E-05  2.86822E-05 -2.78920E-05 -2.37172E-06  1.50000E+01
  2.02730E+01  1.98176E+01  2.00684E+01  1.21777E-01  1.24877E+00 -5.63401E-04 -1.13777E+00 -4.72794E-04 -5.47179E-04  9.94009E-05  4.32345E-03  4.17949E+00 -1.09357E-04  2.92558E-05 -2.91186E-05 -3.43080E-06  1.50000E+01
  2.04002E+01  1.97103E+01  2.00857E+01 -3.94483E-02  1.00637E+00  2.10802E-02 -1.47611E+00 -3.77791E-04 -6.46177E-04  8.23343E-05  1.24398E-02  2.91880E+00 -6.68066E-04  3.23513E-05 -2.27725E-05 -6.77649E-06  1.50000E+01
  2.03987E+01  1.97081E+01  2.00592E+01 -5.00556E-02  9.88323E-01  1.54222E-02 -1.54945E+00 -4.10810E-04 -7.14709E-04  6.11582E-05  1.05620E-02  2.92457E+00 -1.23003E-04  3.36434E-05 -2.25525E-05 -4.98619E-06  1.50000E+01
  2.04145E+01  1.96961E+01  2.00180E+01 -1.14979E-01  8.78255E-01  6.52132E-03 -1.55997E+00 -3.29346E-04 -6.95512E-04  1.43224E-05  2.14373E-04  2.66593E+00  5.32652E-04  3.60303E-05 -2.01227E-05 -1.29893E-06  1.50000E+01
  2.03970E+01  1.97064E+01  2.00050E+01 -5.90987E-02  9.72738E-01  6.19776E-04 -1.70026E+00 -3.53794E-04 -6.49540E-04  3.90074E-06  8.58136E-03  2.97383E+00  3.20483E-05  3.56876E-05 -2.28608E-05 -1.79007E-07  1.50000E+01
  2.07418E+01  1.96415E+01  1.97260E+01 -3.78112E-01  4.96922E-02 -1.63104E-01 -5.76979E-01  2.41643E-05 -3.00076E-04  5.96553E-05 -4.08322E-03  1.27587E-01  3.24678E-03  3.65155E-05 -1.38459E-06  1.16390E-06  1.50000E+01
  2.07433E+01  1.96366E+01  1.97000E+01 -3.69636E-01  1.21197E-01 -1.87191E-01 -6.43718E-01  1.21475E-05 -3.50881E-04  6.50432E-05 -6.34518E-03  3.48250E-01  1.54686E-03  3.64956E-05 -2.32244E-06  1.82650E-06  1.50000E+01
  2.06601E+01  1.96462E+01  1.97219E+01 -3.51521E-01  2.30107E-01 -1.97619E-01 -9.54165E-01 -1.40434E-05 -4.77269E-04  4.46346E-05 -1.52617E-02  6.73836E-01 -7.34110E-03  3.38651E-05 -3.25024E-06  4.46681E-06  1.50000E+01
  2.02965E+01  1.98158E+01  2.01394E+01  1.23583E-01  1.25298E+00 -2.17552E-03 -1.12263E+00 -4.29059E-04 -4.91077E-04  1.77187E-04  5.67183E-03  4.18330E+00 -7.61764E-04  3.01930E-05 -3.23907E-05 -5.24013E-06  1.50000E+01
  2.02834E+01  1.98344E+01  2.01518E+01  1.25096E-01  1.26280E+00 -2.38218E-03 -1.09355E+00 -4.16241E-04 -4.68005E-04  1.91923E-04  4.65889E-03  4.15645E+00 -4.60071E-04  2.98567E-05 -3.29168E-05 -4.95188E-06  1.50000E+01
  2.03009E+01  1.98233E+01  2.01665E+01  1.25423E-01  1.26031E+00 -3.05008E-03 -1.10036E+00 -4.17816E-04 -4.68601E-04  2.04390E-04  5.63692E-03  4.13347E+00 -9.43793E-04  2.96771E-05 -3.31634E-05 -5.38354E-06  1.50000E+01
  2.07616E+01  1.96437E+01  1.97399E+01 -3.85535E-01 -3.43144E-03 -1.44023E-01 -4.13453E-01  3.06937E-05 -2.22930E-04  4.87721E-05 -2.48716E-03 -3.22801E-02  3.89968E-03  3.70656E-05 -1.02152E-06  5.92616E-07  1.50000E+01
  2.06830E+01  1.96405E+01  1.96830E+01 -3.36805E-01  3.23972E-01 -2.24024E-01 -9.90984E-01 -4.19304E-05 -5.33818E-04  4.36753E-05 -1.76431E-02  9.74318E-01 -1.13569E-02  3.15231E-05 -4.29385E-06  5.06325E-06  1.50000E+01
  2.06618E+01  1.96443E+01  1.96951E+01 -3.33246E-01  3.40689E-01 -2.18995E-01 -1.01783E+00 -4.47429E-05 -5.15018E-04  3.16722E-05 -2.00300E-02  1.02588E+00 -1.37434E-02  3.03145E-05 -4.44830E-06  5.48998E-06  1.50000E+01
  2.03663E+01  1.97733E+01  2.01991E+01  1.05636E-01  1.22379E+00  1.29297E-03 -1.10747E+00 -3.85977E-04 -4.58413E-04  2.03923E-04  1.14677E-02  3.81582E+00 -3.39411E-03  2.85034E-05 -3.08076E-05 -6.08407E-06  1.50000E+01
  2.03793E+01  1.97556E+01  2.01876E+01  8.46636E-02  1.19207E+00  7.12995E-03 -1.10459E+00 -3.80431E-04 -4.78896E-04  1.86626E-04  1.41946E-02  3.65192E+00 -4.11984E-03  2.89148E-05 -2.93617E-05 -6.46036E-06  1.50000E+01
  2.03536E+01  1.97919E+01  2.02105E+01  1.18724E-01  1.24717E+00 -2.43906E-03 -1.10889E+00 -3.87314E-04 -4.41163E-04  2.19592E-04  9.15709E-03  3.94338E+00 -2.71243E-03  2.85993E-05 -3.26839E-05 -6.16549E-06  1.50000E+01
  2.03481E+01  1.97441E+01  1.99657E+01  6.28511E-02  1.15364E+00 -2.72504E-03 -1.23569E+00 -4.20365E-04 -5.74732E-04 -3.88275E-05  1.29229E-02  3.65672E+00  7.44857E-04  3.17507E-05 -2.66980E-05  3.08525E-06  1.50000E+01
  2.07237E+01  1.96359E+01  1.96856E+01 -3.57078E-01  2.05721E-01 -2.08571E-01 -8.22052E-01 -1.03483E-05 -4.70397E-04  7.02272E-05 -1.01880E-02  6.07323E-01 -2.42618E-03  3.47627E-05 -2.96593E-06  3.79610E-06  1.50000E+01
  2.07255E+01  1.96325E+01  1.96593E+01 -3.40816E-01  3.06874E-01 -2.32449E-01 -9.37332E-01 -4.08041E-05 -5.70735E-04  6.58374E-05 -1.41963E-02  9.25105E-01 -7.76027E-03  3.58889E-05 -4.48020E-06  5.45920E-06  1.50000E+01
  2.07042E+01  1.96366E+01  1.96711E+01 -3.39218E-01  3.13001E-01 -2.28426E-01 -9.48873E-01 -3.96722E-05 -5.53471E-04  5.57139E-05 -1.56822E-02  9.41899E-01 -9.32993E-03  3.46626E-05 -4.46720E-06  5.38875E-06  1.50000E+01
  2.06407E+01  1.96480E+01  1.97074E+01 -3.28116E-01  3.63994E-01 -2.13015E-01 -1.45713E+00 -5.37831E-05 -5.43662E-04  2.11123E-05 -2.26668E-02  1.09991E+00 -1.63104E-02  3.29333E-05 -5.43416E-06  6.02815E-06  1.50000E+01
  2.04197E+01  1.97045E+01  2.01252E+01 -6.61499E-02  9.68000E-01  3.83924E-02 -1.38485E+00 -3.88194E-04 -7.03167E-04  1.22874E-04  8.64761E-03  2.88004E+00  1.12548E-04  3.33354E-05 -2.30324E-05 -9.50525E-06  1.50000E+01
  2.04043E+01  1.97179E+01  2.01379E+01 -8.16707E-03  1.05778E+00  2.67809E-02 -1.27635E+00 -4.07473E-04 -6.38066E-04  1.42970E-04  1.49661E-02  3.11297E+00 -3.01724E-03  3.10896E-05 -2.50764E-05 -9.32948E-06  1.50000E+01
  2.02928E+01  1.98095E+01  2.01115E+01  1.21444E-01  1.24683E+00 -1.39231E-03 -1.19945E+00 -4.46278E-04 -5.18051E-04  1.48535E-04  5.63198E-03  4.24149E+00 -5.44182E-04  3.03963E-05 -3.13788E-05 -4.85021E-06  1.50000E+01
  2.02757E+01  1.98218E+01  2.00967E+01  1.22886E-01  1.25228E+00 -1.03277E-03 -1.17554E+00 -4.45315E-04 -5.13285E-04  1.32200E-04  4.43130E-03  4.19529E+00 -2.04238E-04  2.95827E-05 -3.03751E-05 -4.29986E-06  1.50000E+01
  2.01114E+01  2.00704E+01  2.02248E+01  2.68727E-02  1.25095E+00  0.00000E+00 -2.22336E-01 -8.69138E-05 -1.47028E-04  9.81540E-05  6.88282E+00 -4.49795E+01 -4.06337E+01  3.19645E-05 -3.59828E-05 -1.52788E-06  1.50000E+01
  2.08057E+01  1.96302E+01  1.96907E+01 -3.80866E-01  6.69683E-02 -1.73813E-01 -1.37750E-01  1.44416E-05 -7.77090E-05  1.75590E-05 -1.26356E-02  3.65204E-02  1.80702E-02  1.99364E-05 -1.49316E-06  2.88885E-08  1.50000E+01
  2.07859E+01  1.96287E+01  1.96766E+01 -3.71309E-01  1.30055E-01 -1.94110E-01 -3.02341E-01  2.32340E-05 -1.85179E-04  3.92801E-05 -6.24214E-03  3.81082E-01  1.84111E-03  3.84452E-05 -3.19180E-06  1.30463E-06  1.50000E+01
  2.06639E+01  1.96433E+01  1.96683E+01 -3.07910E-01  4.64288E-01 -2.36045E-01 -9.94974E-01 -7.61884E-05 -5.44738E-04  1.02535E-05 -2.38233E-02  1.42505E+00 -2.07505E-02  3.18338E-05 -6.79154E-06  7.53747E-06  1.50000E+01
  2.06428E+01  1.96477E+01  1.96805E+01 -3.00945E-01  4.89859E-01 -2.28032E-01 -1.43293E+00 -9.94771E-05 -5.89794E-04 -5.53625E-06 -2.57730E-02  1.50860E+00 -2.28469E-02  3.07721E-05 -7.35221E-06  8.07883E-06  1.50000E+01
  2.03009E+01  1.97849E+01  1.99821E+01  1.10297E-01  1.22416E+00 -5.74000E-05 -1.15742E+00 -4.94291E-04 -5.91971E-04 -2.47339E-05  6.91047E-03  3.98674E+00  2.86578E-04  2.81003E-05 -2.61180E-05  1.17999E-06  1.50000E+01
  2.04071E+01  1.97232E+01  2.01640E+01  1.08841E-02  1.08817E+00  2.68252E-02 -1.16013E+00 -3.82877E-04 -5.74775E-04  1.57921E-04  1.60924E-02  3.26154E+00 -4.12165E-03  3.06244E-05 -2.65183E-05 -9.67700E-06  1.50000E+01
  2.03184E+01  1.98125E+01  2.01812E+01  1.24619E-01  1.25695E+00 -3.43873E-03 -1.09400E+00 -4.13343E-04 -4.64055E-04  2.13141E-04  6.71692E-03  4.08103E+00 -1.49861E-03  2.94132E-05 -3.32691E-05 -5.79239E-06  1.50000E+01
  2.03360E+01  1.98021E+01  2.01959E+01  1.22453E-01  1.25263E+00 -3.29960E-03 -1.09466E+00 -4.03007E-04 -4.54440E-04  2.18549E-04  7.87566E-03  4.01042E+00 -2.04297E-03  2.88958E-05 -3.28659E-05 -5.89256E-06  1.50000E+01
  2.01275E+01  2.00163E+01  2.01806E+01  5.84689E-02  1.25441E+00 -3.30522E-04 -7.31417E-01 -3.04151E-04 -3.64566E-04  2.26111E-04  1.96064E-03  3.94833E+00 -2.73580E-04  3.95270E-05 -4.41413E-05 -2.57782E-06  1.50000E+01
  2.01093E+01  2.00266E+01  2.01675E+01  5.33397E-02  1.24682E+00 -4.59898E-04 -7.24236E-01 -2.74125E-04 -3.41514E-04  1.94416E-04  1.98595E-03  3.89994E+00 -3.21984E-04  4.00778E-05 -4.37546E-05 -2.14740E-06  1.50000E+01
  2.07276E+01  1.96301E+01  1.96328E+01 -3.18263E-01  4.22638E-01 -2.53339E-01 -9.59154E-01 -6.15543E-05 -5.51018E-04  4.04906E-05 -1.82327E-02  1.29317E+00 -1.47199E-02  3.54199E-05 -6.18799E-06  6.86135E-06  1.50000E+01
  2.02552E+01  1.98289E+01  2.00260E+01  1.22327E-01  1.25213E+00 -9.51456E-05 -1.15534E+00 -5.33024E-04 -6.07378E-04  4.34991E-05  3.60971E-03  4.10370E+00  1.37262E-05  2.82297E-05 -2.75328E-05 -1.68404E-06  1.50000E+01
  2.02566E+01  1.98310E+01  2.00541E+01  1.22599E-01  1.25361E+00 -3.17233E-04 -1.13879E+00 -4.90065E-04 -5.61179E-04  8.35891E-05  3.59367E-03  4.13380E+00  1.10757E-05  2.88931E-05 -2.86696E-05 -2.81725E-06  1.50000E+01
  2.04178E+01  1.97010E+01  2.00987E+01 -8.47977E-02  9.34784E-01  3.35689E-02 -1.55122E+00 -3.61792E-04 -6.96719E-04  9.15388E-05  5.95676E-03  2.77062E+00  1.06185E-03  3.34892E-05 -2.13455E-05 -7.27389E-06  1.50000E+01
  2.04163E+01  1.96985E+01  2.00720E+01 -9.95233E-02  9.07729E-01  2.63063E-02 -1.75675E+00 -3.34198E-04 -6.73962E-04  6.21025E-05  3.34126E-03  2.70185E+00  1.39503E-03  3.41194E-05 -2.04073E-05 -5.24512E-06  1.50000E+01
  2.02883E+01  1.98425E+01  2.01785E+01  1.25604E-01  1.26971E+00 -3.16691E-03 -1.07093E+00 -4.02924E-04 -4.45488E-04  2.16188E-04  4.67144E-03  4.14118E+00 -6.55303E-04  2.98015E-05 -3.41555E-05 -5.06141E-06  1.50000E+01
  2.02761E+01  1.98623E+01  2.01904E+01  1.23034E-01  1.27676E+00 -2.96597E-03 -1.05381E+00 -3.87559E-04 -4.24610E-04  2.27070E-04  3.98270E-03  4.14240E+00 -4.63340E-04  3.03103E-05 -3.55978E-05 -4.97270E-06  1.50000E+01
  2.02939E+01  1.98517E+01  2.02045E+01  1.25393E-01  1.27766E+00 -3.90825E-03 -1.07782E+00 -3.86466E-04 -4.20827E-04  2.35344E-04  4.58411E-03  4.13690E+00 -7.97986E-04  3.01013E-05 -3.60101E-05 -5.35576E-06  1.50000E+01
  2.06218E+01  1.96521E+01  1.96927E+01 -2.91477E-01  5.21827E-01 -2.18352E-01 -2.08873E+00 -1.21068E-04 -6.39939E-04 -2.20694E-05 -2.72394E-02  1.61439E+00 -2.44769E-02  3.38268E-05 -9.18009E-06  1.01555E-05  1.50000E+01
  2.02859E+01  1.97994E+01  2.00254E+01  1.16995E-01  1.23673E+00 -1.00417E-04 -1.14638E+00 -5.22610E-04 -6.11409E-04  3.99114E-05  5.40867E-03  4.11905E+00  1.13204E-06  2.84858E-05 -2.70832E-05 -1.65910E-06  1.50000E+01
  2.02854E+01  1.97990E+01  1.99969E+01  1.16852E-01  1.23632E+00  3.70398E-05 -1.15350E+00 -5.30754E-04 -6.19272E-04 -3.84655E-06  5.44680E-03  4.05511E+00  1.29923E-04  2.76581E-05 -2.61417E-05  2.14720E-07  1.50000E+01
  2.04152E+01  1.96969E+01  2.00451E+01 -1.09731E-01  8.88442E-01  1.70615E-02 -1.52163E+00 -3.33345E-04 -6.91014E-04  3.79035E-05  1.18351E-03  2.67001E+00  1.15463E-03  3.53156E-05 -2.01828E-05 -3.27615E-06  1.50000E+01
  2.07063E+01  1.96345E+01  1.96445E+01 -3.16177E-01  4.31154E-01 -2.48402E-01 -1.01181E+00 -7.41997E-05 -6.12887E-04  3.55379E-05 -1.97893E-02  1.31916E+00 -1.64371E-02  3.61477E-05 -6.55561E-06  7.53310E-06  1.50000E+01
  2.06851E+01  1.96389E+01  1.96563E+01 -3.12849E-01  4.44852E-01 -2.42729E-01 -1.00061E+00 -6.98057E-05 -5.65727E-04  2.29080E-05 -2.17568E-02  1.36248E+00 -1.85274E-02  3.55007E-05 -6.90825E-06  7.48117E-06  1.50000E+01
  2.02792E+01  1.98274E+01  2.01245E+01  1.24092E-01  1.25697E+00 -1.64911E-03 -1.16292E+00 -4.29514E-04 -4.89858E-04  1.63460E-04  4.55231E-03  4.18107E+00 -3.12315E-04  2.99446E-05 -3.18274E-05 -4.78013E-06  1.50000E+01
  2.02621E+01  1.98395E+01  2.01100E+01  1.23563E-01  1.25976E+00 -1.09673E-03 -1.16860E+00 -4.30213E-04 -4.89814E-04  1.49145E-04  3.78196E-03  4.16046E+00 -6.10441E-05  2.96896E-05 -3.11966E-05 -4.18564E-06  1.50000E+01
  2.04507E+01  1.96793E+01  1.99897E+01 -2.33749E-01  6.27214E-01 -7.11262E-03 -1.47669E+00 -2.06259E-04 -7.02384E-04 -6.81687E-06 -2.26018E-02  1.90472E+00 -9.18449E-04  3.64952E-05 -1.35337E-05  7.07566E-07  1.50000E+01
  2.04322E+01  1.96873E+01  1.99764E+01 -1.73297E-01  7.65741E-01 -1.29464E-02 -1.35278E+00 -2.55406E-04 -6.60778E-04 -1.70136E-05 -1.10730E-02  2.34806E+00 -1.33229E-03  3.53911E-05 -1.66271E-05  1.65688E-06  1.50000E+01
  2.04322E+01  1.96869E+01  2.00038E+01 -1.75962E-01  7.60137E-01  1.39096E-03 -1.33764E+00 -2.55934E-04 -6.66966E-04  1.25628E-06 -1.15176E-02  2.31357E+00  2.84707E-04  3.50420E-05 -1.62787E-05 -1.27328E-07  1.50000E+01
  2.07088E+01  1.96337E+01  1.96179E+01 -2.85201E-01  5.61631E-01 -2.62202E-01 -1.01809E+00 -1.04448E-04 -6.03210E-04  2.27831E-06 -2.23525E-02  1.74137E+00 -2.36019E-02  3.57404E-05 -9.02312E-06  1.08010E-05  1.50000E+01
  2.04250E+01  1.97143E+01  2.01779E+01 -2.04127E-02  1.04576E+00  4.02941E-02 -1.17453E+00 -3.60241E-04 -5.85082E-04  1.57747E-04  1.42114E-02  3.16803E+00 -2.99618E-03  3.18226E-05 -2.60621E-05 -1.06496E-05  1.50000E+01
  2.04221E+01  1.97089E+01  2.01516E+01 -4.43341E-02  1.00563E+00  4.06025E-02 -1.20884E+00 -3.85233E-04 -6.60089E-04  1.44967E-04  1.15120E-02  3.01841E+00 -1.36818E-03  3.25117E-05 -2.45241E-05 -1.06501E-05  1.50000E+01
  2.02589E+01  1.98345E+01  2.00822E+01  1.23062E-01  1.25616E+00 -6.43934E-04 -1.13109E+00 -4.52680E-04 -5.18751E-04  1.17495E-04  3.65891E-03  4.15430E+00 -8.19957E-06  2.92887E-05 -2.98239E-05 -3.62322E-06  1.50000E+01
  2.03117E+01  1.98414E+01  2.02187E+01  1.27087E-01  1.27809E+00 -4.76779E-03 -1.10367E+00 -3.82343E-04 -4.14594E-04  2.41280E-04  5.26779E-03  4.12027E+00 -1.17980E-03  3.02787E-05 -3.66283E-05 -5.42829E-06  1.50000E+01
  2.03296E+01  1.98314E+01  2.02329E+01  1.27986E-01  1.27804E+00 -5.40713E-03 -1.09764E+00 -3.75031E-04 -4.06170E-04  2.44679E-04  6.03848E-03  4.09615E+00 -1.62275E-03  2.99583E-05 -3.68984E-05 -5.89701E-06  1.50000E+01
  2.03237E+01  1.98215E+01  2.02074E+01  1.26746E-01  1.26707E+00 -4.45049E-03 -1.09054E+00 -3.95802E-04 -4.35800E-04  2.31756E-04  6.37922E-03  4.07806E+00 -1.55739E-03  2.93302E-05 -3.45949E-05 -5.76598E-06  1.50000E+01
  2.00914E+01  2.00372E+01  2.01544E+01  4.80090E-02  1.23916E+00 -5.85612E-04 -6.82303E-01 -2.50711E-04 -3.23168E-04  1.63918E-04  2.06871E-03  3.83903E+00 -3.70546E-04  4.09548E-05 -4.45074E-05 -2.65085E-06  1.50000E+01
  2.00792E+01  2.00569E+01  2.01656E+01  3.67790E-02  1.23402E+00 -5.35309E-04 -5.93710E-01 -2.58172E-04 -3.43877E-04  1.88621E-04  1.90100E-03  3.79457E+00 -4.64618E-04  4.53129E-05 -5.00468E-05 -4.68973E-06  1.50000E+01