 TITLE="3D TRIANGULAR SURFACE DATA"
VARIABLES="X","Y","Z","U","V","W","P", "Fex", "Fey", "Fez","Finx","Finy","Finz","WSSx","WSSy","WSSz","AMForce"
 ZONE T="unstruc"N=        1757 E=        3355 F=FEPOINT  ET=TRIANGLE
  2.03968E+01  1.99103E+01  2.00980E+01  3.47203E-01 -1.05922E+00 -7.38533E-04  9.25584E-01 -3.82754E-04  4.94908E-04  1.21179E-04  3.81419E-03 -4.38143E+00 -2.69882E-04  1.90370E-05  1.57049E-05  7.95991E-07  1.50000E+01
  2.04143E+01  1.99249E+01  2.00983E+01  3.61712E-01 -1.08292E+00 -2.75968E-04  9.42284E-01 -1.88738E-04  2.39647E-04  5.80372E-05  3.60393E-03 -2.09943E+00  2.88646E-05  9.12499E-06  7.69848E-06  2.21596E-07  1.50000E+01
  2.04092E+01  1.99253E+01  2.00769E+01  3.61875E-01 -1.07721E+00  1.07171E-04  9.10039E-01 -2.77765E-04  3.53552E-04  6.64109E-05  1.28983E-03 -3.08897E+00  1.85369E-03  1.27154E-05  1.06378E-05  4.78754E-07  1.50000E+01
  2.03967E+01  1.99011E+01  2.01292E+01  3.37626E-01 -1.05765E+00 -9.90764E-04  9.18158E-01 -3.22602E-04  4.17138E-04  1.33361E-04  1.72379E-03 -3.69022E+00  5.01511E-04  1.69846E-05  1.40386E-05  6.91135E-07  1.50000E+01
  2.04126E+01  1.99176E+01  2.01194E+01  3.54002E-01 -1.08023E+00 -8.67938E-04  9.37735E-01 -2.77753E-04  3.51992E-04  1.04692E-04  9.08096E-04 -3.07660E+00 -2.10991E-03  1.37612E-05  1.16058E-05  4.47783E-07  1.50000E+01
  2.04271E+01  1.99327E+01  2.01105E+01  3.68857E-01 -1.10023E+00  4.63470E-06  9.73741E-01 -2.48754E-04  3.11616E-04  8.45553E-05  1.65461E-03 -2.69608E+00  5.70300E-04  1.17628E-05  1.00480E-05  2.92563E-07  1.50000E+01
  2.04253E+01  1.99370E+01  2.00865E+01  3.73215E-01 -1.09836E+00  2.75983E-05  9.50741E-01 -2.48330E-04  3.11875E-04  6.52085E-05  2.33781E-03 -2.70750E+00 -7.97033E-04  1.12890E-05  9.61500E-06  2.11630E-07  1.50000E+01
  2.04060E+01  1.99270E+01  2.00499E+01  3.63443E-01 -1.07343E+00  2.54707E-05  9.26462E-01 -3.09641E-04  3.95856E-04  4.87239E-05  1.75090E-03 -3.35235E+00  3.31785E-04  1.32197E-05  1.09987E-05  3.90535E-07  1.50000E+01
  2.03915E+01  1.99125E+01  2.00664E+01  3.49464E-01 -1.05305E+00 -5.99893E-04  9.12044E-01 -3.30217E-04  4.28733E-04  7.21870E-05  2.12419E-03 -3.70813E+00 -8.12680E-04  1.50261E-05  1.22897E-05  6.89510E-07  1.50000E+01
  2.03889E+01  1.99142E+01  2.00375E+01  3.51254E-01 -1.05009E+00 -3.72412E-04  9.12010E-01 -3.19327E-04  4.14291E-04  3.92903E-05  2.12063E-03 -3.47575E+00 -2.92042E-04  1.32903E-05  1.08859E-05  3.47940E-07  1.50000E+01
  2.04138E+01  1.99098E+01  2.01457E+01  3.45910E-01 -1.08072E+00 -8.67568E-04  9.28767E-01 -2.94047E-04  3.73243E-04  1.34253E-04  1.13685E-03 -3.31366E+00 -6.19764E-04  1.56968E-05  1.32823E-05  4.69340E-07  1.50000E+01
  2.04285E+01  1.99262E+01  2.01350E+01  3.62086E-01 -1.10147E+00 -3.34908E-04  9.30454E-01 -2.83900E-04  3.55033E-04  1.17535E-04  6.48304E-04 -3.11332E+00 -6.52962E-04  1.42631E-05  1.22721E-05  2.99954E-07  1.50000E+01
  2.03599E+01  1.98802E+01  2.00972E+01  3.17510E-01 -1.00697E+00 -1.60626E-03  8.59640E-01 -2.99583E-04  4.02159E-04  9.99652E-05  2.48532E-03 -3.57127E+00 -1.46897E-04  1.58713E-05  1.25465E-05  1.04845E-06  1.50000E+01
  2.03576E+01  1.98846E+01  2.00682E+01  3.22291E-01 -1.00511E+00 -1.25571E-03  8.55179E-01 -3.00594E-04  4.04026E-04  7.07986E-05  2.69128E-03 -3.51226E+00 -1.37404E-04  1.49809E-05  1.18779E-05  7.00988E-07  1.50000E+01
  2.03417E+01  1.98691E+01  2.00824E+01  3.06715E-01 -9.81404E-01 -1.78459E-03  8.20294E-01 -2.77017E-04  3.79018E-04  8.10087E-05  2.75576E-03 -3.35429E+00 -1.57544E-04  1.50045E-05  1.16820E-05  8.95043E-07  1.50000E+01
  2.03787E+01  1.98913E+01  2.01125E+01  3.28287E-01 -1.03290E+00 -1.33202E-03  8.97538E-01 -3.29747E-04  4.34386E-04  1.23006E-04  2.86862E-03 -3.88777E+00 -2.27567E-04  1.77006E-05  1.43313E-05  8.82254E-07  1.50000E+01
  2.03625E+01  1.98739E+01  2.01258E+01  3.10719E-01 -1.00878E+00 -1.94026E-03  8.53279E-01 -2.89581E-04  3.87468E-04  1.24469E-04  2.31479E-03 -3.48488E+00 -2.66461E-04  1.66942E-05  1.32926E-05  9.63505E-07  1.50000E+01
  2.03809E+01  1.98836E+01  2.01412E+01  3.20096E-01 -1.03420E+00 -1.55035E-03  8.71740E-01 -3.01179E-04  3.95186E-04  1.40671E-04  1.93261E-03 -3.52261E+00  3.47768E-05  1.70690E-05  1.38578E-05  9.34964E-07  1.50000E+01
  2.03761E+01  1.98967E+01  2.00827E+01  3.34041E-01 -1.03084E+00 -1.06237E-03  8.89552E-01 -3.35281E-04  4.42272E-04  9.29065E-05  2.65248E-03 -3.89615E+00 -1.16866E-04  1.65454E-05  1.33268E-05  9.10410E-07  1.50000E+01
  2.03734E+01  1.98998E+01  2.00531E+01  3.37187E-01 -1.02811E+00 -8.18343E-04  8.93911E-01 -3.16394E-04  4.17229E-04  5.66331E-05  2.32409E-03 -3.56255E+00 -2.93916E-04  1.42357E-05  1.14810E-05  4.99419E-07  1.50000E+01
  2.04406E+01  1.99474E+01  2.00986E+01  3.82991E-01 -1.11877E+00  4.15289E-04  9.85878E-01 -2.84482E-04  3.53463E-04  8.39751E-05  1.60901E-03 -3.02430E+00  5.28767E-06  1.29194E-05  1.11521E-05  1.24808E-07  1.50000E+01
  2.04386E+01  1.99512E+01  2.00730E+01  3.86563E-01 -1.11668E+00  3.62040E-04  9.84123E-01 -2.91995E-04  3.63803E-04  6.35045E-05  1.96799E-03 -3.12908E+00 -4.14142E-04  1.28276E-05  1.10156E-05  1.36489E-07  1.50000E+01
  2.04426E+01  1.99422E+01  2.01239E+01  3.77744E-01 -1.12096E+00  4.08350E-04  9.83430E-01 -2.89254E-04  3.58097E-04  1.07437E-04  1.51633E-03 -3.11447E+00  2.31286E-04  1.37210E-05  1.19043E-05  2.32367E-07  1.50000E+01
  2.04225E+01  1.99393E+01  2.00613E+01  3.75212E-01 -1.09559E+00  2.83993E-04  9.20033E-01 -2.91371E-04  3.66381E-04  5.42239E-05  9.82752E-04 -3.14393E+00  3.73131E-04  1.26050E-05  1.06764E-05  2.99405E-07  1.50000E+01
  2.04368E+01  1.99535E+01  2.00466E+01  3.88697E-01 -1.11487E+00  4.51468E-04  9.43015E-01 -3.07563E-04  3.83673E-04  4.26562E-05  1.65183E-03 -3.29465E+00  1.18437E-04  1.29946E-05  1.11199E-05  1.53470E-07  1.50000E+01
  2.03718E+01  1.99014E+01  2.00241E+01  3.38923E-01 -1.02640E+00 -4.99808E-04  8.86353E-01 -3.06521E-04  4.04228E-04  2.52686E-05  2.59013E-03 -3.42083E+00 -2.49210E-04  1.31002E-05  1.05734E-05  2.43736E-07  1.50000E+01
  2.04043E+01  1.99281E+01  2.00219E+01  3.64623E-01 -1.07141E+00  5.07183E-05  9.21616E-01 -3.19776E-04  4.09028E-04  2.24136E-05  2.19442E-03 -3.40044E+00  3.34288E-05  1.28892E-05  1.07143E-05  2.15123E-07  1.50000E+01
  2.03877E+01  1.99150E+01  2.00089E+01  3.52096E-01 -1.04869E+00 -1.39550E-04  9.07741E-01 -3.15445E-04  4.09387E-04  9.59168E-06  2.52598E-03 -3.40487E+00 -1.68423E-04  1.27313E-05  1.04279E-05  9.71118E-08  1.50000E+01
  2.03655E+01  1.98662E+01  2.01534E+01  3.02334E-01 -1.01078E+00 -2.20286E-03  8.70865E-01 -2.79660E-04  3.72405E-04  1.45953E-04  2.05846E-03 -3.35408E+00 -1.82681E-04  1.71689E-05  1.37209E-05  1.06104E-06  1.50000E+01
  2.03839E+01  1.98752E+01  2.01684E+01  3.11123E-01 -1.03624E+00 -1.78879E-03  8.74304E-01 -2.86891E-04  3.74299E-04  1.59621E-04  1.84764E-03 -3.36699E+00 -9.65200E-05  1.76398E-05  1.43819E-05  1.04313E-06  1.50000E+01
  2.07117E+01  2.00914E+01  1.96684E+01  5.29250E-01 -1.47802E+00 -8.15120E-03  9.24443E-01 -3.07190E-04  3.64228E-04 -2.42764E-04  1.45884E-03 -4.65153E+00 -5.17945E-04  2.41060E-05  2.82537E-05  6.14975E-06  1.50000E+01
  2.06938E+01  2.00848E+01  1.96838E+01  5.20750E-01 -1.45341E+00 -8.64359E-03  9.82001E-01 -3.36984E-04  3.87778E-04 -2.49386E-04  1.41947E-03 -4.57015E+00 -4.20781E-04  2.39848E-05  2.76111E-05  5.13248E-06  1.50000E+01
  2.07053E+01  2.01041E+01  1.96952E+01  5.39153E-01 -1.46607E+00 -8.55756E-03  9.61155E-01 -3.15428E-04  3.76199E-04 -2.26884E-04  1.47857E-03 -4.60961E+00 -4.82447E-04  2.56378E-05  2.89039E-05  5.65113E-06  1.50000E+01
  2.06878E+01  2.00969E+01  1.97108E+01  5.30351E-01 -1.44225E+00 -8.77430E-03  1.03332E+00 -3.52816E-04  4.06431E-04 -2.36286E-04  1.46007E-03 -4.53172E+00 -3.82100E-04  2.44870E-05  2.74349E-05  4.92466E-06  1.50000E+01
  2.06996E+01  2.01158E+01  1.97226E+01  5.48271E-01 -1.45499E+00 -8.72162E-03  9.64303E-01 -3.34791E-04  3.98372E-04 -2.15987E-04  1.50197E-03 -4.57103E+00 -4.38321E-04  2.63680E-05  2.92372E-05  5.87719E-06  1.50000E+01
  2.07672E+01  2.01073E+01  1.96229E+01  5.53383E-01 -1.55592E+00 -3.64379E-03  5.67751E-01 -1.41976E-04  2.24518E-04 -1.54409E-04  1.94692E-03 -4.90750E+00 -5.46996E-04  2.83463E-05  3.29865E-05  9.41648E-06  1.50000E+01
  2.07483E+01  2.01027E+01  1.96379E+01  5.45713E-01 -1.52927E+00 -5.69345E-03  7.46426E-01 -2.15760E-04  2.91478E-04 -2.04145E-04  1.76550E-03 -4.82030E+00 -5.82313E-04  2.54577E-05  2.99931E-05  8.01506E-06  1.50000E+01
  2.07597E+01  2.01218E+01  1.96489E+01  5.64519E-01 -1.54148E+00 -5.22576E-03  5.16271E-01 -1.60869E-04  2.46627E-04 -1.56423E-04  1.88940E-03 -4.85996E+00 -5.81971E-04  3.03012E-05  3.39149E-05  8.78449E-06  1.50000E+01
  2.04451E+01  1.99356E+01  2.01494E+01  3.71093E-01 -1.12361E+00  2.46442E-04  9.75691E-01 -3.01717E-04  3.72163E-04  1.34660E-04  1.37355E-03 -3.27473E+00 -3.45406E-04  1.53304E-05  1.34908E-05  3.88061E-08  1.50000E+01
  2.07527E+01  2.01353E+01  1.96756E+01  5.74794E-01 -1.52785E+00 -6.50087E-03  6.03106E-01 -1.85759E-04  2.72042E-04 -1.59289E-04  1.85170E-03 -4.81512E+00 -5.93107E-04  3.41010E-05  3.68860E-05  8.78226E-06  1.50000E+01
  2.07711E+01  2.01404E+01  1.96601E+01  5.82981E-01 -1.55349E+00 -4.83900E-03  3.95419E-01 -1.13700E-04  2.04033E-04 -1.13064E-04  1.96427E-03 -4.89944E+00 -6.20517E-04  3.51523E-05  3.82344E-05  1.05515E-05  1.50000E+01
  2.04516E+01  1.99676E+01  2.00322E+01  4.02050E-01 -1.13446E+00  5.52786E-04  9.60837E-01 -3.17745E-04  3.92650E-04  2.97094E-05  2.09226E-03 -3.39197E+00  7.50269E-05  1.31426E-05  1.13560E-05  6.26655E-08  1.50000E+01
  2.04357E+01  1.99548E+01  2.00194E+01  3.89922E-01 -1.11368E+00  4.35352E-04  9.23529E-01 -3.19293E-04  3.98444E-04  1.83927E-05  2.09709E-03 -3.38012E+00  2.03988E-04  1.29403E-05  1.10495E-05  1.02985E-07  1.50000E+01
  2.03988E+01  1.98927E+01  2.01569E+01  3.28869E-01 -1.05881E+00 -1.22414E-03  9.14046E-01 -2.95864E-04  3.81131E-04  1.49297E-04  1.53868E-03 -3.42100E+00  9.78996E-06  1.68657E-05  1.40075E-05  7.58769E-07  1.50000E+01
  2.04021E+01  1.98838E+01  2.01833E+01  3.19736E-01 -1.06133E+00 -1.40338E-03  9.04142E-01 -2.91747E-04  3.73496E-04  1.71940E-04  1.96710E-03 -3.35773E+00 -2.13272E-04  1.74843E-05  1.45532E-05  9.49333E-07  1.50000E+01
  2.04166E+01  1.99015E+01  2.01720E+01  3.37490E-01 -1.08294E+00 -9.04442E-04  9.50201E-01 -2.94753E-04  3.72552E-04  1.58795E-04  1.73580E-03 -3.34960E+00 -3.38334E-04  1.65181E-05  1.40436E-05  5.79646E-07  1.50000E+01
  2.03712E+01  1.99016E+01  1.99956E+01  3.39218E-01 -1.02562E+00 -1.27207E-04  8.83117E-01 -3.00492E-04  3.96257E-04 -3.97186E-06  2.73911E-03 -3.34458E+00 -1.72459E-04  1.26075E-05  1.01763E-05 -3.61315E-08  1.50000E+01
  2.04037E+01  1.99282E+01  1.99938E+01  3.64765E-01 -1.07057E+00  1.45548E-04  9.23085E-01 -3.19647E-04  4.09301E-04 -6.00528E-06  2.56820E-03 -3.39258E+00 -1.06270E-05  1.27750E-05  1.06103E-05 -6.10329E-08  1.50000E+01
  2.03875E+01  1.99145E+01  1.99807E+01  3.51594E-01 -1.04824E+00  1.25465E-04  9.08407E-01 -3.11446E-04  4.04184E-04 -1.92238E-05  2.68691E-03 -3.35886E+00 -9.05574E-05  1.25325E-05  1.02608E-05 -1.63190E-07  1.50000E+01
  2.07063E+01  2.01444E+01  1.97628E+01  5.73732E-01 -1.45757E+00 -8.51695E-03  9.09636E-01 -3.22714E-04  3.99697E-04 -1.76915E-04  1.55341E-03 -4.57559E+00 -4.39490E-04  2.86515E-05  3.06211E-05  6.68615E-06  1.50000E+01
  2.07233E+01  2.01522E+01  1.97468E+01  5.83325E-01 -1.48013E+00 -8.44257E-03  6.74611E-01 -2.71057E-04  3.56494E-04 -1.63776E-04  1.62038E-03 -4.65363E+00 -5.16039E-04  3.28298E-05  3.46656E-05  7.49276E-06  1.50000E+01
  2.07114E+01  2.01342E+01  1.97346E+01  5.65934E-01 -1.46760E+00 -8.60454E-03  8.64881E-01 -3.06528E-04  3.79895E-04 -1.90858E-04  1.55143E-03 -4.61114E+00 -4.83115E-04  2.85889E-05  3.10275E-05  6.56285E-06  1.50000E+01
  2.04566E+01  1.99580E+01  2.01117E+01  3.92955E-01 -1.13996E+00  8.65946E-04  1.01893E+00 -3.11080E-04  3.81707E-04  1.01537E-04  1.93600E-03 -3.26695E+00  6.00550E-05  1.41171E-05  1.23915E-05 -2.22273E-09  1.50000E+01
  2.01320E+01  1.96744E+01  2.01908E+01  8.11635E-02 -6.16995E-01 -4.40625E-03  4.44377E-01 -1.09708E-04  2.41021E-04  1.27897E-04  3.17755E-03 -1.94102E+00 -1.94339E-03  3.59518E-05  2.20892E-05  2.88998E-06  1.50000E+01
  2.01162E+01  1.96578E+01  2.02016E+01  5.77982E-02 -5.81826E-01 -2.67572E-03  3.79467E-01 -8.72349E-05  2.32150E-04  1.21958E-04  2.60319E-03 -1.83151E+00 -2.21108E-03  4.56704E-05  2.84851E-05  1.39641E-06  1.50000E+01
  2.01364E+01  1.96629E+01  2.02145E+01  6.51622E-02 -6.12990E-01 -2.63112E-03  4.43624E-01 -8.62220E-05  2.27304E-04  1.28778E-04  2.29332E-03 -1.93382E+00 -1.93811E-03  4.73761E-05  2.95547E-05  2.94163E-06  1.50000E+01
  2.07581E+01  2.01658E+01  1.97149E+01  6.01858E-01 -1.52724E+00 -7.23315E-03 -2.61492E-01 -5.65962E-05  1.48382E-04 -5.24331E-05  1.79659E-03 -4.81335E+00 -7.14395E-04  3.98441E-05  4.19426E-05  1.15297E-05  1.50000E+01
  2.07760E+01  2.01714E+01  1.96990E+01  6.10560E-01 -1.55179E+00 -6.02245E-03 -1.18483E-01 -1.27581E-05  6.40593E-05 -2.02563E-05  2.73551E-02 -2.48309E+00  1.01129E-03  2.13770E-05  2.26079E-05  6.79963E-06  1.50000E+01
  2.07643E+01  2.01536E+01  1.96872E+01  5.92874E-01 -1.53990E+00 -6.22556E-03  5.47389E-01 -1.21178E-04  2.23111E-04 -1.10778E-04  1.91914E-03 -4.85505E+00 -6.49932E-04  3.93924E-05  4.22105E-05  1.17594E-05  1.50000E+01
  2.07170E+01  2.01229E+01  1.97069E+01  5.57300E-01 -1.47860E+00 -8.40900E-03  8.48175E-01 -2.88303E-04  3.60138E-04 -2.02182E-04  1.53906E-03 -4.64934E+00 -5.24407E-04  2.79423E-05  3.09058E-05  6.50175E-06  1.50000E+01
  2.07287E+01  2.01413E+01  1.97187E+01  5.75176E-01 -1.49102E+00 -8.22310E-03  8.18289E-01 -2.48005E-04  3.28945E-04 -1.69968E-04  1.63565E-03 -4.69081E+00 -5.56157E-04  3.06221E-05  3.30208E-05  7.31010E-06  1.50000E+01
  2.03714E+01  1.99004E+01  1.99675E+01  3.37973E-01 -1.02551E+00  2.85795E-04  8.85026E-01 -2.96356E-04  3.91073E-04 -3.19313E-05  2.66964E-03 -3.29844E+00 -5.82366E-05  1.27613E-05  1.02890E-05 -2.78663E-07  1.50000E+01
  2.03558E+01  1.98873E+01  2.00392E+01  3.25153E-01 -1.00352E+00 -8.82550E-04  8.37010E-01 -2.92306E-04  3.92526E-04  3.99230E-05  2.70981E-03 -3.39869E+00 -2.25012E-04  1.36404E-05  1.08418E-05  3.74182E-07  1.50000E+01
  2.03549E+01  1.98884E+01  2.00105E+01  3.26362E-01 -1.00257E+00 -4.34350E-04  8.24252E-01 -2.85236E-04  3.83006E-04  1.08105E-05  2.80457E-03 -3.31691E+00 -2.00363E-04  1.28864E-05  1.02493E-05  1.10962E-07  1.50000E+01
  2.07560E+01  2.00880E+01  1.96122E+01  5.34264E-01 -1.54368E+00 -4.28722E-03  7.03228E-01 -2.08551E-04  2.87232E-04 -2.17951E-04  1.83770E-03 -4.86809E+00 -5.50989E-04  2.49407E-05  3.06750E-05  8.98501E-06  1.50000E+01
  2.06824E+01  2.01081E+01  1.97383E+01  5.39164E-01 -1.43197E+00 -8.68980E-03  1.03389E+00 -3.62414E-04  4.20587E-04 -2.18148E-04  1.47846E-03 -4.49396E+00 -3.47951E-04  2.54903E-05  2.79675E-05  5.05670E-06  1.50000E+01
  2.06943E+01  2.01265E+01  1.97505E+01  5.56574E-01 -1.44482E+00 -8.63729E-03  9.55495E-01 -3.44204E-04  4.11847E-04 -1.97791E-04  1.49544E-03 -4.53401E+00 -3.98849E-04  2.66824E-05  2.90049E-05  5.86094E-06  1.50000E+01
  2.03398E+01  1.98728E+01  2.00538E+01  3.10763E-01 -9.80013E-01 -1.31385E-03  8.20786E-01 -2.73611E-04  3.74502E-04  5.24784E-05  2.91514E-03 -3.31465E+00 -1.64103E-04  1.38851E-05  1.08567E-05  5.23786E-07  1.50000E+01
  2.03223E+01  1.98609E+01  2.00396E+01  2.99036E-01 -9.55003E-01 -1.22023E-03  7.30120E-01 -2.60136E-04  3.62064E-04  3.78100E-05  3.07669E-03 -3.16878E+00 -1.43829E-04  1.33090E-05  1.02443E-05  4.27577E-07  1.50000E+01
  2.03237E+01  1.98579E+01  2.00679E+01  2.95768E-01 -9.55980E-01 -1.84051E-03  7.69877E-01 -2.52624E-04  3.52888E-04  6.30376E-05  3.03638E-03 -3.19754E+00 -1.70571E-04  1.42464E-05  1.09264E-05  7.60347E-07  1.50000E+01
  2.04546E+01  1.99625E+01  2.00856E+01  3.97301E-01 -1.13763E+00  7.33499E-04  1.00510E+00 -3.12306E-04  3.84592E-04  7.81264E-05  1.98223E-03 -3.26472E+00 -6.59911E-05  1.36156E-05  1.18642E-05 -4.05114E-09  1.50000E+01
  2.04529E+01  1.99657E+01  2.00592E+01  4.00299E-01 -1.13576E+00  6.10955E-04  9.84991E-01 -3.13453E-04  3.87176E-04  5.41259E-05  2.14266E-03 -3.32680E+00 -1.75736E-04  1.33549E-05  1.15707E-05  6.63162E-08  1.50000E+01
  2.04666E+01  1.99815E+01  2.00180E+01  4.15058E-01 -1.15400E+00  5.40079E-04  9.83106E-01 -3.28951E-04  4.02430E-04  1.67275E-05  2.18939E-03 -3.46898E+00  6.05129E-05  1.31615E-05  1.14830E-05  3.53537E-08  1.50000E+01
  2.04510E+01  1.99683E+01  2.00049E+01  4.02686E-01 -1.13378E+00  4.38677E-04  9.34287E-01 -3.25139E-04  4.01462E-04  4.37990E-06  2.24532E-03 -3.43379E+00  1.72933E-04  1.29801E-05  1.11990E-05  7.95567E-09  1.50000E+01
  2.07346E+01  2.01294E+01  1.96912E+01  5.66181E-01 -1.50288E+00 -7.68441E-03  7.53865E-01 -2.31718E-04  3.12605E-04 -1.79338E-04  1.65486E-03 -4.73147E+00 -5.82203E-04  3.08178E-05  3.37682E-05  7.48880E-06  1.50000E+01
  2.07412E+01  2.01165E+01  1.96642E+01  5.56357E-01 -1.51565E+00 -6.83512E-03  7.88925E-01 -2.30444E-04  3.06612E-04 -1.96736E-04  1.72003E-03 -4.77530E+00 -5.85718E-04  2.86071E-05  3.21822E-05  7.57978E-06  1.50000E+01
  2.06762E+01  2.00777E+01  1.96993E+01  5.12178E-01 -1.42937E+00 -8.74859E-03  1.04341E+00 -3.63971E-04  4.10634E-04 -2.53841E-04  1.44685E-03 -4.49174E+00 -3.15577E-04  2.37146E-05  2.69484E-05  4.51819E-06  1.50000E+01
  2.03470E+01  1.98569E+01  2.01384E+01  2.93240E-01 -9.84938E-01 -2.59277E-03  8.34697E-01 -2.67919E-04  3.63361E-04  1.30294E-04  2.42287E-03 -3.28627E+00 -2.89228E-04  1.62899E-05  1.27280E-05  1.11540E-06  1.50000E+01
  2.03317E+01  1.98399E+01  2.01509E+01  2.75379E-01 -9.60728E-01 -3.27468E-03  8.24213E-01 -2.49231E-04  3.44881E-04  1.36390E-04  2.45716E-03 -3.16137E+00 -3.85313E-04  1.67985E-05  1.27887E-05  1.51968E-06  1.50000E+01
  2.03504E+01  1.98488E+01  2.01654E+01  2.84219E-01 -9.87057E-01 -2.87789E-03  8.45026E-01 -2.61252E-04  3.54040E-04  1.51599E-04  2.25781E-03 -3.23593E+00 -3.19649E-04  1.74272E-05  1.36294E-05  1.33731E-06  1.50000E+01
  2.07463E+01  2.01478E+01  1.97029E+01  5.84201E-01 -1.51512E+00 -7.44089E-03  5.79010E-01 -1.64725E-04  2.56923E-04 -1.30297E-04  1.76219E-03 -4.77254E+00 -6.17175E-04  3.36069E-05  3.63390E-05  9.23222E-06  1.50000E+01
  2.07003E+01  2.00717E+01  1.96574E+01  5.10399E-01 -1.46538E+00 -8.30664E-03  9.79942E-01 -3.33735E-04  3.80291E-04 -2.68849E-04  1.39953E-03 -4.61184E+00 -4.51408E-04  2.27367E-05  2.73147E-05  5.73706E-06  1.50000E+01
  2.06824E+01  2.00651E+01  1.96727E+01  5.02098E-01 -1.44057E+00 -8.65012E-03  1.02946E+00 -3.54039E-04  3.95814E-04 -2.69859E-04  1.39980E-03 -4.53014E+00 -3.45771E-04  2.26804E-05  2.67491E-05  4.92231E-06  1.50000E+01
  2.04202E+01  1.98924E+01  2.01979E+01  3.28267E-01 -1.08617E+00 -9.57364E-04  9.55211E-01 -2.97273E-04  3.73434E-04  1.83932E-04  2.21027E-03 -3.37890E+00 -3.49126E-04  1.76640E-05  1.50886E-05  7.54896E-07  1.50000E+01
  2.04343E+01  1.99103E+01  2.01865E+01  3.46175E-01 -1.10697E+00 -3.97252E-04  9.86449E-01 -3.03612E-04  3.76677E-04  1.72655E-04  2.07713E-03 -3.37844E+00 -3.89335E-04  1.70142E-05  1.48412E-05  3.73090E-07  1.50000E+01
  2.04061E+01  1.98740E+01  2.02092E+01  3.09687E-01 -1.06457E+00 -1.52089E-03  9.23560E-01 -2.90579E-04  3.68855E-04  1.94447E-04  2.16558E-03 -3.36141E+00 -3.35852E-04  1.82484E-05  1.53308E-05  9.87868E-07  1.50000E+01
  2.04038E+01  1.99269E+01  1.99659E+01  3.63538E-01 -1.07050E+00  2.82458E-04  9.20518E-01 -3.15214E-04  4.04225E-04 -3.39314E-05  2.65258E-03 -3.37809E+00  3.36577E-05  1.29341E-05  1.07247E-05 -2.98752E-07  1.50000E+01
  2.07298E+01  2.00974E+01  1.96531E+01  5.37612E-01 -1.50329E+00 -7.18802E-03  8.80088E-01 -2.71591E-04  3.36503E-04 -2.31398E-04  1.58503E-03 -4.73553E+00 -5.74300E-04  2.40512E-05  2.87236E-05  7.35704E-06  1.50000E+01
  2.07371E+01  2.00832E+01  1.96271E+01  5.26603E-01 -1.51689E+00 -6.19229E-03  8.02415E-01 -2.58729E-04  3.25431E-04 -2.43287E-04  1.61929E-03 -4.78045E+00 -5.81449E-04  2.34281E-05  2.89563E-05  7.83009E-06  1.50000E+01
  2.07185E+01  2.00777E+01  1.96421E+01  5.18600E-01 -1.49080E+00 -7.51451E-03  9.08208E-01 -3.02908E-04  3.58204E-04 -2.61345E-04  1.47822E-03 -4.69570E+00 -5.37826E-04  2.29432E-05  2.80647E-05  6.76427E-06  1.50000E+01
  2.06646E+01  2.00581E+01  1.96880E+01  4.93742E-01 -1.41627E+00 -8.63666E-03  1.05124E+00 -3.71724E-04  4.10259E-04 -2.69336E-04  1.45204E-03 -4.45137E+00 -2.44793E-04  2.22815E-05  2.57311E-05  4.15706E-06  1.50000E+01
  2.04731E+01  1.99686E+01  2.01253E+01  4.02958E-01 -1.16156E+00  1.38043E-03  1.02903E+00 -3.28522E-04  3.98806E-04  1.17435E-04  2.24941E-03 -3.41891E+00  1.18130E-05  1.53533E-05  1.37647E-05 -3.24844E-07  1.50000E+01
  2.04591E+01  1.99522E+01  2.01376E+01  3.87269E-01 -1.14281E+00  9.13259E-04  1.01598E+00 -3.11518E-04  3.81342E-04  1.25301E-04  2.01298E-03 -3.33171E+00  5.50939E-05  1.52112E-05  1.35050E-05 -9.93351E-08  1.50000E+01
  2.03441E+01  1.98638E+01  2.01107E+01  3.00832E-01 -9.83075E-01 -2.21643E-03  7.98540E-01 -2.74681E-04  3.74223E-04  1.07250E-04  2.62426E-03 -3.34143E+00 -1.97340E-04  1.56565E-05  1.21753E-05  1.10997E-06  1.50000E+01
  2.03259E+01  1.98534E+01  2.00960E+01  2.90660E-01 -9.57304E-01 -2.39876E-03  8.02715E-01 -2.56656E-04  3.57156E-04  8.99230E-05  2.86691E-03 -3.20535E+00 -2.11160E-04  1.50627E-05  1.15176E-05  1.03817E-06  1.50000E+01
  2.01205E+01  1.96458E+01  2.02248E+01  4.07300E-02 -5.76138E-01  0.00000E+00  7.64125E-02 -6.91353E-06  6.64672E-05  3.24693E-05  8.98268E+00  2.58463E+01 -3.00817E+01  2.69650E-05  1.69475E-05  6.06173E-07  1.50000E+01
  2.07900E+01  2.01448E+01  1.96449E+01  5.90620E-01 -1.57974E+00 -2.69011E-03  1.00938E-02 -2.99594E-06  4.21331E-05 -1.22244E-05  2.70751E-02 -2.53001E+00  2.22203E-03  1.69699E-05  1.85079E-05  5.52256E-06  1.50000E+01
  2.07785E+01  2.01263E+01  1.96338E+01  5.72174E-01 -1.56794E+00 -3.10204E-03  5.96998E-02 -4.42059E-05  1.28411E-04 -6.22080E-05  1.95982E-03 -4.94656E+00 -6.18867E-04  3.25026E-05  3.69861E-05  1.13292E-05  1.50000E+01
  2.06891E+01  2.00516E+01  1.96466E+01  4.91303E-01 -1.45256E+00 -8.37935E-03  1.02474E+00 -3.52034E-04  3.88713E-04 -2.90358E-04  1.37334E-03 -4.57184E+00 -3.71286E-04  2.13979E-05  2.63594E-05  5.39499E-06  1.50000E+01
  2.06710E+01  2.00451E+01  1.96617E+01  4.83185E-01 -1.42751E+00 -8.56714E-03  1.04036E+00 -3.67071E-04  4.00182E-04 -2.88745E-04  1.40205E-03 -4.48977E+00 -2.66180E-04  2.13279E-05  2.56239E-05  4.56222E-06  1.50000E+01
  2.03547E+01  1.98880E+01  1.99823E+01  3.25935E-01 -1.00223E+00  7.65916E-05  8.24317E-01 -2.80685E-04  3.76876E-04 -1.68137E-05  2.76577E-03 -3.25900E+00 -1.00320E-04  1.26873E-05  1.00904E-05 -1.73855E-07  1.50000E+01
  2.04621E+01  1.99452E+01  2.01635E+01  3.80357E-01 -1.14627E+00  8.86748E-04  9.98002E-01 -3.21621E-04  3.91162E-04  1.53120E-04  1.89878E-03 -3.40740E+00 -2.31281E-04  1.61746E-05  1.45027E-05 -9.51202E-08  1.50000E+01
  2.03690E+01  1.98574E+01  2.01801E+01  2.92839E-01 -1.01315E+00 -2.43176E-03  8.75814E-01 -2.72382E-04  3.60974E-04  1.66758E-04  2.09348E-03 -3.28735E+00 -2.47051E-04  1.79439E-05  1.43801E-05  1.22173E-06  1.50000E+01
  2.03876E+01  1.98658E+01  2.01947E+01  3.01311E-01 -1.03897E+00 -1.98489E-03  9.16112E-01 -2.83197E-04  3.67745E-04  1.81955E-04  2.05041E-03 -3.32307E+00 -2.62900E-04  1.83004E-05  1.49758E-05  1.19644E-06  1.50000E+01
  2.01476E+01  1.96910E+01  2.01797E+01  1.03456E-01 -6.50223E-01 -5.40274E-03  4.48511E-01 -1.08690E-04  2.25250E-04  1.12769E-04  3.13918E-03 -2.04977E+00 -1.56580E-03  3.09930E-05  1.92811E-05  2.90139E-06  1.50000E+01
  2.01279E+01  1.96846E+01  2.01666E+01  9.54054E-02 -6.19792E-01 -5.24526E-03  4.05395E-01 -1.00194E-04  2.17530E-04  9.97570E-05  3.75915E-03 -1.94248E+00 -1.68295E-03  3.11962E-05  1.94197E-05  2.23700E-06  1.50000E+01
  2.07448E+01  2.00682E+01  1.96017E+01  5.14851E-01 -1.53124E+00 -4.97439E-03  8.38944E-01 -2.52928E-04  3.20355E-04 -2.59488E-04  1.68790E-03 -4.82837E+00 -5.64595E-04  2.28385E-05  2.92589E-05  8.36981E-06  1.50000E+01
  2.03049E+01  1.98488E+01  2.00258E+01  2.86935E-01 -9.29824E-01 -9.79715E-04  7.41700E-01 -2.51158E-04  3.55593E-04  2.45250E-05  3.09940E-03 -3.04620E+00 -9.55052E-05  1.27884E-05  9.69621E-06  2.86046E-07  1.50000E+01
  2.03060E+01  1.98466E+01  2.00537E+01  2.84487E-01 -9.30478E-01 -1.75535E-03  7.55447E-01 -2.41676E-04  3.43567E-04  4.89439E-05  3.13781E-03 -3.06715E+00 -1.70995E-04  1.35672E-05  1.02477E-05  6.19120E-07  1.50000E+01
  2.04708E+01  1.99737E+01  2.00989E+01  4.07855E-01 -1.15874E+00  1.18271E-03  1.03470E+00 -3.31719E-04  4.03467E-04  9.36028E-05  2.22190E-03 -3.39693E+00 -1.93071E-05  1.44642E-05  1.28010E-05 -1.17443E-07  1.50000E+01
  2.04689E+01  1.99776E+01  2.00723E+01  4.11489E-01 -1.15653E+00  9.51712E-04  1.02328E+00 -3.31204E-04  4.04131E-04  6.83118E-05  2.21483E-03 -3.40575E+00 -6.26309E-05  1.39521E-05  1.22631E-05 -7.36552E-08  1.50000E+01
  2.03355E+01  1.98311E+01  2.01774E+01  2.65560E-01 -9.62768E-01 -3.52951E-03  8.39996E-01 -2.48568E-04  3.42879E-04  1.59617E-04  2.22654E-03 -3.13963E+00 -4.15636E-04  1.82751E-05  1.39171E-05  1.78892E-06  1.50000E+01
  2.03206E+01  1.98132E+01  2.01893E+01  2.46327E-01 -9.37825E-01 -4.11730E-03  8.26457E-01 -2.38579E-04  3.34892E-04  1.68499E-04  2.16285E-03 -3.04292E+00 -5.06289E-04  1.92602E-05  1.42315E-05  2.29639E-06  1.50000E+01
  2.03396E+01  1.98211E+01  2.02034E+01  2.54516E-01 -9.65026E-01 -3.65150E-03  8.53085E-01 -2.47889E-04  3.39920E-04  1.81836E-04  2.03940E-03 -3.12450E+00 -4.46839E-04  1.93301E-05  1.47644E-05  1.94334E-06  1.50000E+01
  2.06531E+01  2.00382E+01  1.96768E+01  4.75016E-01 -1.40290E+00 -8.43446E-03  1.06936E+00 -3.77613E-04  4.09549E-04 -2.84502E-04  1.46641E-03 -4.41032E+00 -1.75793E-04  2.16410E-05  2.52487E-05  3.83685E-06  1.50000E+01
  2.03386E+01  1.98748E+01  2.00253E+01  3.12986E-01 -9.79035E-01 -7.87946E-04  7.88600E-01 -2.74113E-04  3.74423E-04  2.49396E-05  2.96488E-03 -3.25736E+00 -1.68420E-04  1.29741E-05  1.01625E-05  2.75619E-07  1.50000E+01
  2.03381E+01  1.98753E+01  1.99969E+01  3.13451E-01 -9.78541E-01 -1.94959E-04  7.84832E-01 -2.71817E-04  3.71191E-04 -2.57128E-06  2.88385E-03 -3.20634E+00 -1.07146E-04  1.25476E-05  9.83627E-06 -2.47542E-08  1.50000E+01
  2.04675E+01  1.99802E+01  2.00453E+01  4.13881E-01 -1.15494E+00  7.35989E-04  1.00007E+00 -3.29122E-04  4.02301E-04  4.24937E-05  2.25152E-03 -3.43597E+00 -6.55105E-05  1.35338E-05  1.18336E-05  1.15995E-08  1.50000E+01
  2.07259E+01  2.00633E+01  1.96165E+01  5.07229E-01 -1.50435E+00 -6.66921E-03  9.17809E-01 -2.93709E-04  3.48116E-04 -2.75959E-04  1.49627E-03 -4.74053E+00 -5.51421E-04  2.18048E-05  2.80267E-05  7.46115E-06  1.50000E+01
  2.07074E+01  2.00577E+01  1.96315E+01  4.99341E-01 -1.47815E+00 -7.77799E-03  9.80961E-01 -3.28719E-04  3.72211E-04 -2.86869E-04  1.40870E-03 -4.65575E+00 -4.73656E-04  2.12495E-05  2.69796E-05  6.48901E-06  1.50000E+01
  2.03285E+01  1.98474E+01  2.01237E+01  2.83811E-01 -9.58908E-01 -2.88682E-03  7.83695E-01 -2.52718E-04  3.50613E-04  1.13602E-04  2.68274E-03 -3.18836E+00 -2.90933E-04  1.57492E-05  1.20073E-05  1.28643E-06  1.50000E+01
  2.03102E+01  1.98376E+01  2.01092E+01  2.74061E-01 -9.32726E-01 -3.08057E-03  7.82077E-01 -2.37401E-04  3.37031E-04  9.76370E-05  2.82559E-03 -3.07966E+00 -3.27431E-04  1.53566E-05  1.14864E-05  1.30157E-06  1.50000E+01
  2.04969E+01  2.00084E+01  1.99895E+01  4.40020E-01 -1.19274E+00  1.47410E-04  1.05776E+00 -3.64581E-04  4.37477E-04 -1.09141E-05  2.15525E-03 -3.62254E+00  2.63053E-05  1.43398E-05  1.27437E-05  6.21392E-09  1.50000E+01
  2.04818E+01  1.99945E+01  1.99761E+01  4.27091E-01 -1.17359E+00  4.97912E-05  1.03866E+00 -3.49028E-04  4.22882E-04 -2.38976E-05  2.17930E-03 -3.57319E+00  8.75566E-05  1.40537E-05  1.23861E-05 -1.83378E-08  1.50000E+01
  2.04817E+01  1.99951E+01  2.00038E+01  4.27701E-01 -1.17341E+00  4.01911E-04  1.03521E+00 -3.43803E-04  4.16578E-04  3.31287E-06  2.17520E-03 -3.54634E+00  3.99015E-05  1.37154E-05  1.20796E-05 -9.63574E-09  1.50000E+01
  2.07338E+01  2.00479E+01  1.95914E+01  4.95174E-01 -1.51864E+00 -5.64484E-03  9.13208E-01 -2.91688E-04  3.49455E-04 -2.98472E-04  1.54929E-03 -4.78827E+00 -5.40195E-04  2.20297E-05  2.94666E-05  8.29234E-06  1.50000E+01
  2.04793E+01  1.99546E+01  2.01777E+01  3.89518E-01 -1.16911E+00  1.59297E-03  1.02820E+00 -3.34141E-04  4.00576E-04  1.68453E-04  2.03559E-03 -3.50814E+00 -1.60941E-04  1.69783E-05  1.56539E-05 -5.03456E-07  1.50000E+01
  2.04759E+01  1.99622E+01  2.01516E+01  3.96815E-01 -1.16501E+00  1.51037E-03  1.03513E+00 -3.30610E-04  3.99108E-04  1.42718E-04  2.16755E-03 -3.46094E+00 -1.94415E-05  1.59522E-05  1.44798E-05 -3.89740E-07  1.50000E+01
  2.03078E+01  1.98428E+01  2.00816E+01  2.80174E-01 -9.31454E-01 -2.46315E-03  7.47685E-01 -2.35972E-04  3.36007E-04  7.28925E-05  3.02084E-03 -3.07944E+00 -2.48958E-04  1.44840E-05  1.08796E-05  1.01516E-06  1.50000E+01
  2.03587E+01  1.98288E+01  2.02175E+01  2.62608E-01 -9.92093E-01 -3.15563E-03  8.84610E-01 -2.58763E-04  3.46258E-04  1.96480E-04  1.96536E-03 -3.19770E+00 -4.10668E-04  1.97432E-05  1.53829E-05  1.97740E-06  1.50000E+01
  2.03777E+01  1.98364E+01  2.02316E+01  2.70626E-01 -1.01903E+00 -2.64680E-03  9.18372E-01 -2.73553E-04  3.56986E-04  2.14123E-04  1.94126E-03 -3.26486E+00 -4.11204E-04  2.00508E-05  1.59771E-05  1.93628E-06  1.50000E+01
  2.03731E+01  1.98475E+01  2.02061E+01  2.82262E-01 -1.01590E+00 -2.58823E-03  9.03651E-01 -2.71175E-04  3.57135E-04  1.89397E-04  2.03809E-03 -3.26802E+00 -3.35253E-04  1.89454E-05  1.52374E-05  1.40580E-06  1.50000E+01
  2.01084E+01  1.96779E+01  2.01536E+01  8.68638E-02 -5.88979E-01 -4.84846E-03  4.00625E-01 -8.60213E-05  2.03340E-04  8.35111E-05  4.49923E-03 -1.82928E+00 -1.74552E-03  3.30530E-05  2.04554E-05  1.90003E-06  1.50000E+01
  2.00923E+01  1.96625E+01  2.01649E+01  6.52518E-02 -5.55128E-01 -3.97528E-03  3.93611E-01 -9.65779E-05  2.38610E-04  1.06145E-04  4.37535E-03 -1.71206E+00 -2.35052E-03  3.85766E-05  2.30107E-05  2.12443E-06  1.50000E+01