 TITLE="3D TRIANGULAR SURFACE DATA"
VARIABLES="X","Y","Z","U","V","W","P", "Fex", "Fey", "Fez","Finx","Finy","Finz","WSSx","WSSy","WSSz","AMForce"
 ZONE T="unstruc"N=        1757 E=        3355 F=FEPOINT  ET=TRIANGLE
  2.04510E+01  1.96782E+01  2.00903E+01 -2.83631E-01 -1.52253E-01 -1.53770E-02  1.07065E-01  5.24640E-05 -1.23363E-05  4.96103E-06 -1.35213E-03 -6.25438E-01 -1.21100E-04  4.99664E-05  6.85108E-06  7.90899E-06  1.50000E+01
  2.04734E+01  1.96817E+01  2.00906E+01 -2.78118E-01 -1.63491E-01 -1.78984E-02  9.93446E-02  2.46312E-05 -7.94675E-06  2.34923E-06 -2.48876E-03 -3.15476E-01 -3.75890E-04  2.31334E-05  3.17462E-06  4.04917E-06  1.50000E+01
  2.04688E+01  1.96836E+01  2.00707E+01 -2.78502E-01 -1.64516E-01 -1.40044E-02  1.11509E-01  3.39554E-05 -5.42406E-06  2.87862E-06 -1.03554E-03 -4.67756E-01 -2.14867E-03  3.27564E-05  4.83269E-06  4.10986E-06  1.50000E+01
  2.04475E+01  1.96727E+01  2.01193E+01 -2.85123E-01 -1.44431E-01 -1.95643E-02  8.83008E-02  4.76537E-05 -3.50014E-05 -6.48427E-07 -1.51769E-03 -5.00974E-01 -1.21335E-03  4.13703E-05  5.30872E-06  7.19043E-06  1.50000E+01
  2.04694E+01  1.96779E+01  2.01102E+01 -2.79384E-01 -1.56640E-01 -2.05843E-02  1.06434E-01  3.78978E-05 -2.23140E-05  1.92251E-06 -1.32707E-03 -4.42937E-01  2.04701E-03  3.38325E-05  4.33114E-06  6.73538E-06  1.50000E+01
  2.04892E+01  1.96826E+01  2.01017E+01 -2.73608E-01 -1.70392E-01 -2.19183E-02  9.78864E-02  3.14045E-05 -1.75280E-05  1.76046E-06 -2.10211E-03 -4.15098E-01 -9.72790E-04  2.82296E-05  3.78229E-06  5.39281E-06  1.50000E+01
  2.04889E+01  1.96858E+01  2.00796E+01 -2.73018E-01 -1.75232E-01 -1.72322E-02  9.81224E-02  2.91890E-05 -1.19083E-05  1.98009E-06 -1.63046E-03 -4.30351E-01  7.78570E-04  2.68771E-05  3.92691E-06  4.00329E-06  1.50000E+01
  2.04663E+01  1.96856E+01  2.00457E+01 -2.78557E-01 -1.66732E-01 -8.89000E-03  1.02726E-01  3.49120E-05 -2.55614E-06  1.82282E-06 -1.13357E-03 -5.17607E-01 -5.25062E-04  3.41123E-05  5.29779E-06  2.31853E-06  1.50000E+01
  2.04465E+01  1.96811E+01  2.00611E+01 -2.84087E-01 -1.55316E-01 -1.01000E-02  1.03845E-01  4.28804E-05  9.21636E-07  4.09840E-06 -1.47042E-03 -5.44129E-01  8.20551E-04  4.25328E-05  6.25953E-06  4.73815E-06  1.50000E+01
  2.04446E+01  1.96829E+01  2.00344E+01 -2.84072E-01 -1.57446E-01 -5.54745E-03  1.10192E-01  3.85913E-05  9.55711E-06  2.70508E-06 -1.23465E-03 -5.18273E-01  2.24725E-04  3.96571E-05  6.10984E-06  2.56484E-06  1.50000E+01
  2.04677E+01  1.96728E+01  2.01345E+01 -2.80350E-01 -1.49139E-01 -2.47057E-02  7.57192E-02  4.67122E-05 -6.11920E-05 -6.50861E-06 -1.48324E-03 -4.53724E-01  5.32236E-04  3.61755E-05  4.24923E-06  7.78313E-06  1.50000E+01
  2.04883E+01  1.96783E+01  2.01245E+01 -2.74210E-01 -1.63429E-01 -2.60874E-02  9.68996E-02  4.04721E-05 -3.78582E-05 -5.05457E-07 -9.86838E-04 -4.58581E-01  2.83901E-04  3.38594E-05  4.01585E-06  8.06987E-06  1.50000E+01
  2.04034E+01  1.96707E+01  2.00898E+01 -2.93896E-01 -1.37043E-01 -1.03291E-02  6.76007E-02  4.51454E-05 -1.31521E-05  1.15953E-06 -1.00045E-03 -4.86331E-01 -8.15383E-04  4.22864E-05  6.17955E-06  4.05873E-06  1.50000E+01
  2.04027E+01  1.96740E+01  2.00629E+01 -2.93608E-01 -1.41212E-01 -7.27217E-03  6.60435E-02  4.18185E-05  4.81983E-06  3.44117E-06 -1.19354E-03 -4.92529E-01 -4.65739E-04  4.19560E-05  6.30453E-06  3.59356E-06  1.50000E+01
  2.03814E+01  1.96690E+01  2.00761E+01 -2.97567E-01 -1.34739E-01 -6.78921E-03  4.93594E-02  4.31892E-05 -8.71228E-06  3.93250E-07 -6.02602E-04 -4.63575E-01 -1.08580E-03  4.10657E-05  6.32630E-06  2.50816E-06  1.50000E+01
  2.04260E+01  1.96720E+01  2.01038E+01 -2.89691E-01 -1.40406E-01 -1.45569E-02  8.20090E-02  4.89778E-05 -2.15260E-05  1.39549E-06 -1.65894E-03 -5.26620E-01 -4.52790E-04  4.47818E-05  6.14814E-06  6.12809E-06  1.50000E+01
  2.04037E+01  1.96662E+01  2.01163E+01 -2.94350E-01 -1.31279E-01 -1.29833E-02  9.87143E-02  4.76505E-05 -2.36579E-05 -8.39642E-07 -7.45394E-04 -4.56124E-01 -1.34139E-03  4.32383E-05  6.09056E-06  4.75991E-06  1.50000E+01
  2.04254E+01  1.96668E+01  2.01306E+01 -2.90312E-01 -1.33940E-01 -1.78208E-02  9.46911E-02  4.93053E-05 -3.64107E-05 -2.65276E-06 -1.00677E-03 -4.56355E-01 -1.03982E-03  4.28462E-05  5.64478E-06  6.15026E-06  1.50000E+01
  2.04255E+01  1.96760E+01  2.00762E+01 -2.89253E-01 -1.45318E-01 -1.08108E-02  1.04167E-01  4.64851E-05 -2.01050E-06  4.41560E-06 -1.57092E-03 -5.46418E-01 -4.38643E-04  4.54645E-05  6.54025E-06  5.48830E-06  1.50000E+01
  2.04240E+01  1.96787E+01  2.00489E+01 -2.89111E-01 -1.48483E-01 -6.79235E-03  9.14758E-02  4.26460E-05  6.41968E-06  3.68622E-06 -1.33226E-03 -5.11890E-01 -1.50469E-04  4.28885E-05  6.46528E-06  3.66425E-06  1.50000E+01
  2.05081E+01  1.96875E+01  2.00906E+01 -2.67129E-01 -1.86199E-01 -2.17368E-02  6.82954E-02  3.23089E-05 -1.74601E-05  1.90290E-06 -1.53132E-03 -5.01454E-01 -1.35009E-04  2.89795E-05  4.13422E-06  5.10156E-06  1.50000E+01
  2.05075E+01  1.96904E+01  2.00670E+01 -2.66547E-01 -1.90643E-01 -1.62335E-02  6.13728E-02  3.18780E-05 -1.26842E-05  2.49924E-06 -1.27567E-03 -5.32770E-01  3.98561E-05  2.92382E-05  4.44165E-06  4.29669E-06  1.50000E+01
  2.05082E+01  1.96836E+01  2.01140E+01 -2.67743E-01 -1.80017E-01 -2.69965E-02  9.22845E-02  3.63037E-05 -2.59931E-05  1.60582E-06 -1.74830E-03 -4.97809E-01 -3.75732E-04  3.16840E-05  4.01020E-06  7.27479E-06  1.50000E+01
  2.04872E+01  1.96881E+01  2.00563E+01 -2.72626E-01 -1.77967E-01 -1.23804E-02  7.00488E-02  3.33445E-05 -1.54582E-05  1.29495E-06 -6.45254E-04 -5.07930E-01 -3.94465E-04  3.03922E-05  4.71270E-06  3.05677E-06  1.50000E+01
  2.05068E+01  1.96925E+01  2.00427E+01 -2.66077E-01 -1.93506E-01 -1.05446E-02  7.34241E-02  3.21743E-05 -6.10347E-06  2.19176E-06 -7.55132E-04 -5.70298E-01 -2.82746E-04  3.05835E-05  4.90935E-06  2.99054E-06  1.50000E+01
  2.04230E+01  1.96801E+01  2.00222E+01 -2.88980E-01 -1.50321E-01 -2.85264E-03  9.97969E-02  4.04995E-05  1.21442E-05  1.91900E-06 -1.16907E-03 -4.98468E-01  4.28105E-05  4.18372E-05  6.51269E-06  1.75146E-06  1.50000E+01
  2.04651E+01  1.96868E+01  2.00200E+01 -2.78510E-01 -1.68257E-01 -3.80038E-03  1.00170E-01  3.46834E-05  2.94991E-06  1.16182E-06 -1.01872E-03 -5.31382E-01 -1.15237E-04  3.45840E-05  5.48067E-06  1.15155E-06  1.50000E+01
  2.04438E+01  1.96838E+01  2.00082E+01 -2.84017E-01 -1.58502E-01 -1.07536E-03  1.17194E-01  3.62188E-05  1.46279E-05  7.66959E-07 -1.04322E-03 -5.11948E-01  1.75240E-04  3.81753E-05  5.99033E-06  6.66710E-07  1.50000E+01
  2.04040E+01  1.96608E+01  2.01422E+01 -2.94929E-01 -1.23758E-01 -1.50763E-02  1.01742E-01  5.14219E-05 -3.11862E-05 -2.09484E-06 -6.72603E-06 -4.16758E-01 -2.29429E-03  4.57002E-05  5.98071E-06  6.37420E-06  1.50000E+01
  2.04254E+01  1.96610E+01  2.01561E+01 -2.90924E-01 -1.26414E-01 -2.05743E-02  1.02549E-01  5.09312E-05 -4.40947E-05 -5.00819E-06 -4.81955E-04 -4.13737E-01 -1.71969E-03  4.37168E-05  5.35407E-06  7.23353E-06  1.50000E+01
  2.08311E+01  1.96798E+01  1.96958E+01 -1.21787E-01 -4.45233E-01  1.57491E-01  2.12538E-01  2.59936E-05  4.49662E-05 -4.28989E-05  2.53442E-03 -1.40685E+00  2.52249E-03  3.18605E-05 -5.47915E-06 -1.83287E-05  1.50000E+01
  2.08109E+01  1.96838E+01  1.97093E+01 -1.28785E-01 -4.28328E-01  1.47381E-01  2.03411E-01  2.46989E-05  4.71455E-05 -4.22893E-05  2.24489E-03 -1.35176E+00  2.15461E-03  3.18124E-05 -4.32606E-06 -1.86309E-05  1.50000E+01
  2.08306E+01  1.96916E+01  1.97211E+01 -1.19228E-01 -4.62053E-01  1.48040E-01  1.96291E-01  2.67720E-05  3.11065E-05 -3.29036E-05  2.22174E-03 -1.45808E+00  2.03590E-03  3.13140E-05 -3.95492E-06 -1.72133E-05  1.50000E+01
  2.08104E+01  1.96948E+01  1.97347E+01 -1.27029E-01 -4.44518E-01  1.37351E-01  1.54434E-01  2.65264E-05  3.14203E-05 -3.25097E-05  1.92052E-03 -1.40135E+00  1.71619E-03  3.16810E-05 -3.08300E-06 -1.79869E-05  1.50000E+01
  2.08302E+01  1.97025E+01  1.97466E+01 -1.17520E-01 -4.76669E-01  1.37146E-01  1.55559E-01  2.89936E-05  1.31892E-05 -2.32870E-05  1.88933E-03 -1.50244E+00  1.57705E-03  3.13290E-05 -2.68918E-06 -1.65368E-05  1.50000E+01
  2.08916E+01  1.96633E+01  1.96569E+01 -1.08644E-01 -4.89813E-01  1.84651E-01  2.00576E-01  3.08621E-05  7.06678E-05 -6.43424E-05  2.90272E-03 -1.55200E+00  3.52635E-03  3.34996E-05 -9.53140E-06 -1.80042E-05  1.50000E+01
  2.08715E+01  1.96696E+01  1.96696E+01 -1.11646E-01 -4.76284E-01  1.76334E-01  1.71011E-01  2.87281E-05  6.14086E-05 -5.66630E-05  2.86755E-03 -1.50805E+00  3.24908E-03  3.22718E-05 -8.15880E-06 -1.81219E-05  1.50000E+01
  2.08913E+01  1.96771E+01  1.96815E+01 -1.02792E-01 -5.09206E-01  1.78653E-01  1.42612E-01  3.02451E-05  4.95424E-05 -4.90805E-05  2.64855E-03 -1.61208E+00  2.93138E-03  3.32234E-05 -8.08701E-06 -1.77955E-05  1.50000E+01
  2.05082E+01  1.96789E+01  2.01377E+01 -2.68285E-01 -1.72345E-01 -3.20106E-02  7.41083E-02  4.15676E-05 -4.11850E-05 -6.89811E-07 -1.38864E-03 -4.99580E-01  7.79484E-05  3.42542E-05  3.77964E-06  9.30220E-06  1.50000E+01
  2.08908E+01  1.96901E+01  1.97065E+01 -9.82299E-02 -5.26166E-01  1.70328E-01  1.84953E-01  3.00003E-05  3.16975E-05 -3.59451E-05  2.36160E-03 -1.66445E+00  2.35119E-03  3.26926E-05 -6.39026E-06 -1.68253E-05  1.50000E+01
  2.09111E+01  1.96845E+01  1.96936E+01 -9.40761E-02 -5.40256E-01  1.81021E-01  7.19381E-02  3.31068E-05  2.34535E-05 -3.30359E-05  2.44558E-03 -1.71040E+00  2.65974E-03  3.50159E-05 -7.63489E-06 -1.69201E-05  1.50000E+01
  2.05268E+01  1.96967E+01  2.00295E+01 -2.58925E-01 -2.10683E-01 -8.18591E-03  1.03085E-01  3.14930E-05  3.21659E-06  2.55940E-06 -6.89315E-04 -6.29469E-01 -2.64950E-04  3.12316E-05  5.21272E-06  2.62336E-06  1.50000E+01
  2.05062E+01  1.96936E+01  2.00177E+01 -2.65870E-01 -1.95106E-01 -4.56935E-03  1.18021E-01  3.04134E-05  9.67367E-06  1.46756E-06 -6.63739E-04 -5.90946E-01 -2.47551E-04  3.12466E-05  5.17289E-06  1.21638E-06  1.50000E+01
  2.04465E+01  1.96670E+01  2.01450E+01 -2.85928E-01 -1.37134E-01 -2.31223E-02  7.08305E-02  4.91640E-05 -6.04516E-05 -8.62083E-06 -1.32496E-03 -4.41372E-01 -7.81071E-04  3.94034E-05  4.91670E-06  6.53746E-06  1.50000E+01
  2.04465E+01  1.96609E+01  2.01699E+01 -2.86538E-01 -1.29254E-01 -2.64654E-02  9.41163E-02  5.03869E-05 -6.46122E-05 -1.05694E-05 -9.66610E-04 -4.09477E-01 -1.11862E-03  3.97420E-05  4.56269E-06  7.33592E-06  1.50000E+01
  2.04673E+01  1.96671E+01  2.01591E+01 -2.81074E-01 -1.41281E-01 -2.88081E-02  5.56834E-02  5.05947E-05 -8.29708E-05 -1.40616E-05 -1.52962E-03 -4.34242E-01  8.24224E-07  3.65555E-05  4.14051E-06  7.52312E-06  1.50000E+01
  2.04225E+01  1.96805E+01  1.99960E+01 -2.88921E-01 -1.50860E-01  1.01604E-03  1.01813E-01  3.93278E-05  1.41092E-05 -3.21251E-07 -1.04751E-03 -4.89479E-01  1.78741E-04  4.09676E-05  6.43307E-06 -2.79061E-07  1.50000E+01
  2.04645E+01  1.96871E+01  1.99942E+01 -2.78549E-01 -1.68565E-01  1.23407E-03  9.52974E-02  3.41507E-05  4.90997E-06 -2.37722E-07 -8.94740E-04 -5.31808E-01  8.55808E-05  3.43669E-05  5.46967E-06 -2.09659E-07  1.50000E+01
  2.04435E+01  1.96835E+01  1.99822E+01 -2.84092E-01 -1.58238E-01  3.32278E-03  1.13440E-01  3.56593E-05  1.47835E-05 -1.33018E-06 -9.91985E-04 -5.04422E-01  2.25134E-04  3.76460E-05  5.89288E-06 -1.09832E-06  1.50000E+01
  2.08494E+01  1.97196E+01  1.97847E+01 -1.07347E-01 -5.18502E-01  1.23540E-01  1.26592E-01  3.07691E-05  1.79659E-06 -1.58800E-05  1.45668E-03 -1.63230E+00  9.94617E-04  3.15941E-05 -1.20870E-06 -1.49031E-05  1.50000E+01
  2.08696E+01  1.97169E+01  1.97709E+01 -9.94169E-02 -5.36396E-01  1.35514E-01  1.42397E-01  2.94054E-05  1.45670E-05 -2.08600E-05  1.61870E-03 -1.69143E+00  1.14231E-03  3.16663E-05 -2.13111E-06 -1.45269E-05  1.50000E+01
  2.08499E+01  1.97098E+01  1.97587E+01 -1.08337E-01 -5.07289E-01  1.36509E-01  1.22050E-01  2.92696E-05  7.93005E-06 -1.88959E-05  1.78045E-03 -1.59891E+00  1.38224E-03  3.07630E-05 -2.25346E-06 -1.49342E-05  1.50000E+01
  2.05280E+01  1.96890E+01  2.01026E+01 -2.60494E-01 -1.98716E-01 -2.69918E-02  4.22686E-02  3.50526E-05 -2.61382E-05  1.41332E-06 -1.45398E-03 -5.68302E-01 -3.10523E-04  3.00747E-05  4.12925E-06  6.43458E-06  1.50000E+01
  2.01226E+01  1.96919E+01  2.01913E+01 -9.81315E-02  8.53039E-01  9.69789E-03  2.00229E-01  1.48772E-04  9.38020E-05 -7.71993E-05  1.43109E-02  2.70705E+00 -7.56605E-03  5.16945E-05 -4.04433E-05 -4.30166E-06  1.50000E+01
  2.01087E+01  1.97093E+01  2.02019E+01 -6.28243E-02  8.94162E-01  2.98406E-03  1.47044E-01  1.69332E-04  8.77492E-05 -9.18901E-05  9.82106E-03  2.82094E+00 -4.20073E-03  5.95117E-05 -5.04956E-05 -3.02610E-06  1.50000E+01
  2.01282E+01  1.97019E+01  2.02148E+01 -7.33383E-02  8.71535E-01  4.68788E-03  6.35762E-01  2.57766E-04  1.92634E-04 -1.65446E-04  1.10897E-02  2.76092E+00 -5.63250E-03  5.95586E-05 -5.01827E-05 -3.06391E-06  1.50000E+01
  2.09101E+01  1.97093E+01  1.97440E+01 -8.61541E-02 -5.69458E-01  1.60479E-01  2.51112E-02  3.26049E-05  6.22495E-06 -1.92183E-05  1.85637E-03 -1.80045E+00  1.58942E-03  3.36793E-05 -4.32345E-06 -1.48519E-05  1.50000E+01
  2.09304E+01  1.97045E+01  1.97309E+01 -8.09386E-02 -5.84167E-01  1.73344E-01  3.04887E-02  1.68257E-05  2.71257E-06 -9.76354E-06  1.48772E-02 -9.66646E-01  1.65679E-02  1.72129E-05 -2.60903E-06 -7.40695E-06  1.50000E+01
  2.09106E+01  1.96974E+01  1.97186E+01 -8.95638E-02 -5.55946E-01  1.71796E-01  6.80556E-02  3.26640E-05  1.43188E-05 -2.55511E-05  2.15660E-03 -1.75892E+00  2.10538E-03  3.41472E-05 -5.85170E-06 -1.57865E-05  1.50000E+01
  2.08504E+01  1.96991E+01  1.97330E+01 -1.10010E-01 -4.94133E-01  1.48274E-01  1.53388E-01  2.89555E-05  1.50418E-05 -2.47323E-05  2.11260E-03 -1.55920E+00  1.83665E-03  3.13591E-05 -3.79284E-06 -1.63966E-05  1.50000E+01
  2.08701E+01  1.97064E+01  1.97451E+01 -1.01072E-01 -5.24565E-01  1.48173E-01  1.08079E-01  3.02459E-05  5.58069E-06 -1.95874E-05  1.94289E-03 -1.65571E+00  1.58286E-03  3.15262E-05 -3.62105E-06 -1.57306E-05  1.50000E+01
  2.04223E+01  1.96797E+01  1.99701E+01 -2.89006E-01 -1.50073E-01  4.77396E-03  9.71736E-02  3.89052E-05  1.32728E-05 -2.56220E-06 -1.00796E-03 -4.80285E-01  2.34075E-04  4.03637E-05  6.23506E-06 -2.20315E-06  1.50000E+01
  2.04020E+01  1.96761E+01  2.00361E+01 -2.93407E-01 -1.43910E-01 -4.02224E-03  6.83968E-02  3.98682E-05  1.51224E-05  2.85618E-06 -1.19014E-03 -4.85966E-01 -1.99714E-04  4.14264E-05  6.42208E-06  2.34120E-06  1.50000E+01
  2.04015E+01  1.96771E+01  2.00097E+01 -2.93253E-01 -1.45236E-01 -7.38176E-04  1.11046E-01  3.89989E-05  1.94193E-05  8.33252E-07 -1.06630E-03 -4.78902E-01  2.98818E-05  4.12613E-05  6.50496E-06  6.28197E-07  1.50000E+01
  2.08718E+01  1.96558E+01  1.96450E+01 -1.17583E-01 -4.55361E-01  1.81558E-01  2.47112E-01  2.97511E-05  7.50700E-05 -6.81131E-05  3.12642E-03 -1.44324E+00  3.85891E-03  3.32311E-05 -9.77094E-06 -1.87790E-05  1.50000E+01
  2.08100E+01  1.97051E+01  1.97604E+01 -1.25969E-01 -4.58574E-01  1.26104E-01  1.11423E-01  3.13405E-05 -5.01683E-06 -1.53210E-05  1.59401E-03 -1.44345E+00  1.31180E-03  3.11898E-05 -1.64327E-06 -1.64480E-05  1.50000E+01
  2.08297E+01  1.97125E+01  1.97724E+01 -1.16505E-01 -4.89243E-01  1.25044E-01  1.14797E-01  3.11434E-05 -2.09018E-06 -1.54197E-05  1.56096E-03 -1.53985E+00  1.17212E-03  3.12361E-05 -1.41816E-06 -1.56219E-05  1.50000E+01
  2.03808E+01  1.96717E+01  2.00497E+01 -2.97290E-01 -1.38652E-01 -4.42436E-03 -4.87932E-03  4.04781E-05  6.48066E-06  1.94775E-06 -8.49788E-04 -4.70396E-01 -5.82164E-04  4.06978E-05  6.35622E-06  2.21908E-06  1.50000E+01
  2.03592E+01  1.96692E+01  2.00366E+01 -3.00487E-01 -1.36751E-01 -2.18259E-03  3.17250E-02  4.17489E-05 -2.04486E-06  5.78102E-07 -3.32138E-04 -4.58640E-01 -6.96396E-04  4.04479E-05  6.55727E-06  9.91998E-07  1.50000E+01
  2.03596E+01  1.96670E+01  2.00628E+01 -3.00808E-01 -1.32845E-01 -3.84226E-03  4.69870E-02  4.35540E-05 -9.10587E-06 -1.68077E-07 -7.00756E-05 -4.51099E-01 -1.35042E-03  4.08657E-05  6.53293E-06  1.47168E-06  1.50000E+01
  2.05276E+01  1.96925E+01  2.00786E+01 -2.59891E-01 -2.04305E-01 -2.09128E-02  8.26941E-02  3.20377E-05 -9.64413E-06  3.64309E-06 -1.24898E-03 -5.85425E-01 -2.77533E-04  2.98201E-05  4.43503E-06  5.49857E-06  1.50000E+01
  2.05272E+01  1.96950E+01  2.00542E+01 -2.59326E-01 -2.08284E-01 -1.46341E-02  9.98383E-02  3.13743E-05 -1.84494E-06  4.00655E-06 -9.50169E-04 -6.09537E-01 -2.09186E-04  3.04155E-05  4.82563E-06  4.51035E-06  1.50000E+01
  2.05470E+01  1.97007E+01  2.00165E+01 -2.51286E-01 -2.28951E-01 -5.18790E-03  7.85243E-02  3.21630E-05 -2.01996E-06  1.45366E-06 -6.67906E-04 -6.88531E-01 -1.96619E-04  3.14235E-05  5.47457E-06  1.71475E-06  1.50000E+01
  2.05265E+01  1.96973E+01  2.00044E+01 -2.58789E-01 -2.11542E-01 -1.56691E-03  9.92807E-02  3.19389E-05  4.66243E-06  3.11725E-07 -6.63886E-04 -6.40329E-01 -2.17425E-04  3.17158E-05  5.41712E-06  3.03466E-07  1.50000E+01
  2.08706E+01  1.96950E+01  1.97196E+01 -1.03556E-01 -5.10713E-01  1.59372E-01  1.71870E-01  2.93449E-05  2.04201E-05 -2.90639E-05  2.25366E-03 -1.61373E+00  2.08131E-03  3.18083E-05 -5.17403E-06 -1.69051E-05  1.50000E+01
  2.08711E+01  1.96827E+01  1.96944E+01 -1.07025E-01 -4.94680E-01  1.68851E-01  1.91796E-01  2.89094E-05  3.70533E-05 -4.04143E-05  2.57378E-03 -1.56490E+00  2.65039E-03  3.23296E-05 -6.78715E-06 -1.78640E-05  1.50000E+01
  2.07907E+01  1.96870E+01  1.97230E+01 -1.36887E-01 -4.10952E-01  1.37077E-01  1.28178E-01  2.49091E-05  3.96436E-05 -3.73820E-05  1.85639E-03 -1.29559E+00  1.80269E-03  3.17866E-05 -3.22948E-06 -1.86963E-05  1.50000E+01
  2.03824E+01  1.96603E+01  2.01284E+01 -2.98625E-01 -1.20898E-01 -1.00257E-02  9.74007E-02  4.98614E-05 -2.39361E-05 -1.64696E-06  5.29660E-04 -4.13211E-01 -2.92634E-03  4.52677E-05  6.38482E-06  4.68096E-06  1.50000E+01
  2.03613E+01  1.96543E+01  2.01403E+01 -3.03370E-01 -1.04283E-01 -4.63938E-03  1.01889E-01  5.02047E-05 -3.21127E-05 -5.16144E-06  1.98459E-03 -3.63471E-01 -5.20575E-03  4.43064E-05  6.34054E-06  3.34881E-06  1.50000E+01
  2.03829E+01  1.96546E+01  2.01538E+01 -2.99654E-01 -1.09824E-01 -1.03390E-02  8.41895E-02  5.09991E-05 -4.07790E-05 -6.73559E-06  1.41367E-03 -3.75547E-01 -4.51005E-03  4.35791E-05  5.91924E-06  4.61775E-06  1.50000E+01
  2.08904E+01  1.97023E+01  1.97318E+01 -9.47977E-02 -5.40857E-01  1.59963E-01  1.01403E-01  3.04531E-05  1.18668E-05 -2.34543E-05  2.04976E-03 -1.70941E+00  1.80602E-03  3.20212E-05 -4.76611E-06 -1.57872E-05  1.50000E+01
  2.08113E+01  1.96719E+01  1.96842E+01 -1.31393E-01 -4.09851E-01  1.55971E-01  2.64613E-01  2.36881E-05  6.20175E-05 -5.27638E-05  2.54778E-03 -1.29508E+00  2.62446E-03  3.22459E-05 -5.72602E-06 -1.95250E-05  1.50000E+01
  2.07911E+01  1.96758E+01  1.96978E+01 -1.38692E-01 -3.93119E-01  1.46246E-01  2.11712E-01  2.42014E-05  5.11880E-05 -4.62949E-05  2.15979E-03 -1.24062E+00  2.22047E-03  3.24976E-05 -4.70188E-06 -2.01447E-05  1.50000E+01
  2.04675E+01  1.96606E+01  2.01834E+01 -2.81623E-01 -1.32645E-01 -3.27932E-02  9.15330E-02  5.23637E-05 -7.83901E-05 -1.36715E-05 -1.38219E-03 -4.11456E-01 -4.56475E-04  3.91465E-05  3.73661E-06  9.58524E-06  1.50000E+01
  2.04881E+01  1.96670E+01  2.01726E+01 -2.75583E-01 -1.46703E-01 -3.51545E-02  6.82966E-02  4.96429E-05 -7.69899E-05 -1.22414E-05 -1.62569E-03 -4.44697E-01  1.61488E-04  3.65486E-05  3.60471E-06  9.26825E-06  1.50000E+01
  2.04469E+01  1.96541E+01  2.01943E+01 -2.87137E-01 -1.20084E-01 -2.95414E-02  5.09611E-02  5.59141E-05 -9.14223E-05 -1.90631E-05 -6.53009E-04 -3.83153E-01 -2.03407E-03  4.03246E-05  4.02398E-06  8.75047E-06  1.50000E+01
  2.04643E+01  1.96863E+01  1.99686E+01 -2.78788E-01 -1.67418E-01  6.16773E-03  9.79983E-02  3.40972E-05  5.96163E-06 -1.81397E-06 -1.02841E-03 -5.25915E-01  1.28330E-04  3.45745E-05  5.40556E-06 -1.74868E-06  1.50000E+01
  2.08513E+01  1.96751E+01  1.96826E+01 -1.16039E-01 -4.61331E-01  1.67215E-01  2.23715E-01  2.75019E-05  4.46067E-05 -4.51017E-05  2.76002E-03 -1.45954E+00  2.91147E-03  3.21459E-05 -6.74899E-06 -1.82306E-05  1.50000E+01
  2.08517E+01  1.96620E+01  1.96578E+01 -1.20724E-01 -4.41344E-01  1.73887E-01  2.23328E-01  2.71214E-05  6.78897E-05 -6.11083E-05  3.06172E-03 -1.39762E+00  3.51179E-03  3.24338E-05 -8.21952E-06 -1.87202E-05  1.50000E+01
  2.08315E+01  1.96674E+01  1.96708E+01 -1.25352E-01 -4.26056E-01  1.65271E-01  2.28330E-01  2.53859E-05  6.31437E-05 -5.57820E-05  2.87636E-03 -1.34801E+00  3.08734E-03  3.23625E-05 -6.96127E-06 -1.92102E-05  1.50000E+01
  2.07709E+01  1.96789E+01  1.97115E+01 -1.47065E-01 -3.76188E-01  1.36299E-01  1.69632E-01  2.41314E-05  4.33048E-05 -3.99809E-05  1.69857E-03 -1.18606E+00  1.86660E-03  3.20510E-05 -3.23384E-06 -1.91345E-05  1.50000E+01
  2.05483E+01  1.96904E+01  2.01152E+01 -2.53150E-01 -2.12517E-01 -3.29039E-02  2.85307E-02  3.62063E-05 -2.83606E-05  2.07335E-06 -1.30520E-03 -6.25283E-01 -3.59281E-04  3.06568E-05  3.96454E-06  7.99052E-06  1.50000E+01
  2.05283E+01  1.96847E+01  2.01266E+01 -2.61049E-01 -1.91556E-01 -3.28562E-02  8.39929E-02  3.75043E-05 -3.19082E-05  5.19684E-07 -1.52013E-03 -5.57059E-01 -3.11772E-04  3.16238E-05  3.92832E-06  7.68516E-06  1.50000E+01
  2.03819E+01  1.96651E+01  2.01025E+01 -2.97979E-01 -1.28965E-01 -8.74413E-03  9.52925E-02  4.64813E-05 -1.68891E-05 -6.06751E-07 -1.42722E-04 -4.44134E-01 -1.85965E-03  4.31134E-05  6.43502E-06  3.34000E-06  1.50000E+01
  2.03601E+01  1.96638E+01  2.00889E+01 -3.01290E-01 -1.26583E-01 -5.03455E-03  8.21254E-02  4.69230E-05 -1.25023E-05 -1.95476E-07  4.51037E-04 -4.33643E-01 -2.27261E-03  4.41055E-05  6.80027E-06  2.70121E-06  1.50000E+01
  2.01150E+01  1.97203E+01  2.02248E+01 -4.30353E-02  9.05277E-01  0.00000E+00  5.30962E-01  1.43638E-04  1.00575E-04 -9.13835E-05 -6.48565E-01 -1.49409E+01 -1.93278E+01  3.28045E-05 -2.82888E-05 -8.66026E-07  1.50000E+01
  2.09312E+01  1.96781E+01  1.96809E+01 -9.11229E-02 -5.52765E-01  1.91311E-01 -2.33447E-02  1.71216E-05  1.69068E-06 -1.12661E-05  1.30147E-02 -9.17919E-01  1.65377E-02  1.80133E-05 -4.31779E-06 -8.36571E-06  1.50000E+01
  2.09114E+01  1.96708E+01  1.96689E+01 -9.98491E-02 -5.22233E-01  1.87851E-01  1.53486E-01  3.31266E-05  3.77264E-05 -4.34433E-05  2.70022E-03 -1.65449E+00  3.23388E-03  3.56353E-05 -9.09714E-06 -1.71827E-05  1.50000E+01
  2.07915E+01  1.96638E+01  1.96728E+01 -1.41340E-01 -3.72913E-01  1.53966E-01  2.46803E-01  2.23214E-05  6.95106E-05 -5.83439E-05  2.44249E-03 -1.17833E+00  2.67298E-03  3.29715E-05 -6.03509E-06 -2.09341E-05  1.50000E+01
  2.07713E+01  1.96675E+01  1.96864E+01 -1.48903E-01 -3.56677E-01  1.44606E-01  1.99393E-01  2.41534E-05  4.82710E-05 -4.58874E-05  1.97088E-03 -1.12564E+00  2.26933E-03  3.27359E-05 -4.74126E-06 -2.07232E-05  1.50000E+01
  2.04012E+01  1.96769E+01  1.99836E+01 -2.93198E-01 -1.45217E-01  2.48740E-03  1.02081E-01  3.82106E-05  2.00903E-05 -1.53748E-06 -9.38226E-04 -4.70684E-01  1.86755E-04  4.05936E-05  6.39633E-06 -1.17722E-06  1.50000E+01
  2.05286E+01  1.96794E+01  2.01508E+01 -2.61543E-01 -1.82907E-01 -3.85404E-02  8.77969E-02  3.94690E-05 -3.41411E-05  5.37201E-07 -1.43964E-03 -5.41955E-01 -9.49840E-05  3.32163E-05  3.49683E-06  9.48706E-06  1.50000E+01
  2.04044E+01  1.96546E+01  2.01673E+01 -2.95780E-01 -1.14014E-01 -1.64122E-02  9.91839E-02  5.19676E-05 -4.85278E-05 -8.34090E-06  7.80071E-04 -3.81128E-01 -3.73237E-03  4.33339E-05  5.55384E-06  5.75672E-06  1.50000E+01
  2.04257E+01  1.96545E+01  2.01809E+01 -2.91651E-01 -1.17301E-01 -2.28177E-02  6.98227E-02  5.28657E-05 -6.42223E-05 -1.18768E-05  7.89193E-05 -3.82512E-01 -2.89648E-03  4.16130E-05  4.86717E-06  6.96521E-06  1.50000E+01
  2.01376E+01  1.96762E+01  2.01798E+01 -1.44757E-01  7.90467E-01  2.24056E-02  5.38662E-02  9.72361E-05  4.45817E-05 -3.57363E-05  1.09866E-02  2.53042E+00 -4.13983E-03  4.94287E-05 -3.20381E-05 -3.73576E-06  1.50000E+01
  2.01179E+01  1.96835E+01  2.01670E+01 -1.25469E-01  8.27416E-01  1.53566E-02 -4.06138E-02  1.01033E-04  4.38305E-05 -3.69146E-05  1.18656E-02  2.62320E+00 -4.90099E-03  4.87335E-05 -3.35262E-05 -3.67145E-06  1.50000E+01
  2.08520E+01  1.96481E+01  1.96333E+01 -1.26747E-01 -4.18740E-01  1.78360E-01  2.74264E-01  2.77068E-05  8.93935E-05 -7.68617E-05  3.32122E-03 -1.32756E+00  4.13474E-03  3.29210E-05 -9.58331E-06 -1.90192E-05  1.50000E+01
  2.03377E+01  1.96663E+01  2.00238E+01 -3.03416E-01 -1.34174E-01 -5.34169E-04  8.27893E-02  4.32278E-05 -7.01556E-06 -1.29845E-07  4.51210E-04 -4.49596E-01 -7.05137E-04  4.12380E-05  6.84945E-06  4.44723E-07  1.50000E+01
  2.03381E+01  1.96647E+01  2.00498E+01 -3.03794E-01 -1.30243E-01 -1.44396E-03  7.02123E-02  4.54391E-05 -1.07441E-05 -2.53205E-07  6.91783E-04 -4.41164E-01 -1.54480E-03  4.28416E-05  6.99960E-06  1.13660E-06  1.50000E+01
  2.05479E+01  1.96944E+01  2.00908E+01 -2.52613E-01 -2.19061E-01 -2.62321E-02  7.50992E-02  3.33708E-05 -1.21613E-05  4.47748E-06 -1.19817E-03 -6.42137E-01 -3.29989E-04  3.06233E-05  4.40737E-06  6.87579E-06  1.50000E+01
  2.05476E+01  1.96974E+01  2.00662E+01 -2.52053E-01 -2.23990E-01 -1.93721E-02  8.55090E-02  3.24979E-05 -3.67536E-06  4.85139E-06 -9.84819E-04 -6.59721E-01 -2.80512E-04  3.12472E-05  4.89884E-06  5.72637E-06  1.50000E+01
  2.03620E+01  1.96483E+01  2.01655E+01 -3.05409E-01 -8.59013E-02 -2.11213E-03  4.96190E-02  5.19941E-05 -5.72826E-05 -1.37396E-05  2.46329E-03 -3.08127E-01 -7.17531E-03  4.24651E-05  5.92511E-06  2.16027E-06  1.50000E+01
  2.03411E+01  1.96423E+01  2.01774E+01 -3.12850E-01 -4.39311E-02  1.13102E-02  6.28316E-02  5.54464E-05 -7.02213E-05 -1.59611E-05  1.29582E-03 -1.84753E-01 -8.58207E-03  4.57509E-05  5.19900E-06  2.59140E-06  1.50000E+01
  2.03626E+01  1.96419E+01  2.01904E+01 -3.08336E-01 -6.02751E-02  2.80074E-03  6.15854E-02  5.55940E-05 -7.85970E-05 -1.91909E-05  1.93772E-03 -2.32434E-01 -8.88510E-03  4.41378E-05  5.18857E-06  3.27865E-06  1.50000E+01
  2.07512E+01  1.96706E+01  1.97002E+01 -1.57480E-01 -3.40503E-01  1.35011E-01  2.26559E-01  2.36872E-05  4.49449E-05 -4.14527E-05  1.46428E-03 -1.07369E+00  1.94712E-03  3.24359E-05 -3.34224E-06 -1.98442E-05  1.50000E+01
  2.03804E+01  1.96733E+01  2.00233E+01 -2.97079E-01 -1.40935E-01 -1.85533E-03  9.92322E-02  3.88340E-05  1.48742E-05  1.46498E-06 -8.97557E-04 -4.69527E-01 -2.34683E-04  4.05686E-05  6.46088E-06  1.19421E-06  1.50000E+01
  2.03801E+01  1.96738E+01  1.99972E+01 -2.96934E-01 -1.41703E-01  7.67584E-04  1.08685E-01  3.82013E-05  1.69062E-05 -3.03230E-07 -7.85817E-04 -4.64725E-01  5.62763E-05  4.01322E-05  6.44067E-06 -2.37251E-07  1.50000E+01
  2.05472E+01  1.96995E+01  2.00415E+01 -2.51575E-01 -2.27293E-01 -1.23489E-02  8.09152E-02  3.24468E-05 -2.99664E-06  3.51226E-06 -7.74164E-04 -6.76475E-01 -2.30691E-04  3.14188E-05  5.25463E-06  4.09878E-06  1.50000E+01
  2.08318E+01  1.96542E+01  1.96462E+01 -1.30100E-01 -4.04344E-01  1.71131E-01  3.13643E-01  2.50616E-05  8.85713E-05 -7.39424E-05  3.17486E-03 -1.28058E+00  3.67811E-03  3.30872E-05 -8.52084E-06 -2.00578E-05  1.50000E+01
  2.08117E+01  1.96594E+01  1.96593E+01 -1.35006E-01 -3.88932E-01  1.62898E-01  2.84275E-01  2.22071E-05  8.62233E-05 -6.90986E-05  2.87901E-03 -1.23055E+00  3.17424E-03  3.29434E-05 -7.20580E-06 -2.04663E-05  1.50000E+01
  2.03607E+01  1.96595E+01  2.01148E+01 -3.02075E-01 -1.17376E-01 -5.43806E-03  9.93212E-02  5.05301E-05 -1.86493E-05 -5.04018E-07  1.19192E-03 -4.04539E-01 -3.54669E-03  4.66655E-05  6.79591E-06  4.26261E-06  1.50000E+01
  2.03391E+01  1.96583E+01  2.01015E+01 -3.05422E-01 -1.12442E-01 -1.29124E-03  9.81573E-02  5.00229E-05 -1.52887E-05  1.50874E-09  1.85328E-03 -3.90904E-01 -4.04226E-03  4.65974E-05  6.94085E-06  3.67022E-06  1.50000E+01
  2.05873E+01  1.97081E+01  1.99903E+01 -2.34715E-01 -2.67485E-01  2.74159E-03 -7.44448E-03  3.51496E-05 -3.05117E-05 -3.02689E-07 -5.73934E-04 -8.13600E-01 -1.81126E-05  2.87581E-05  5.30116E-06 -8.40766E-07  1.50000E+01
  2.05671E+01  1.97041E+01  1.99780E+01 -2.43212E-01 -2.47123E-01  6.36199E-03  6.79113E-02  3.21442E-05 -9.44803E-06 -1.46674E-06 -5.98755E-04 -7.53202E-01 -2.11716E-05  2.99542E-05  5.33156E-06 -2.01984E-06  1.50000E+01
  2.05672E+01  1.97045E+01  2.00034E+01 -2.43203E-01 -2.47961E-01 -1.53645E-03  6.72691E-02  3.21189E-05 -1.12084E-05  2.13176E-07 -6.21775E-04 -7.50224E-01 -9.71159E-05  2.95746E-05  5.33701E-06  3.04240E-07  1.50000E+01
  2.08321E+01  1.96403E+01  1.96217E+01 -1.36199E-01 -3.79927E-01  1.74844E-01  3.46114E-01  2.53825E-05  1.10676E-04 -9.01071E-05  3.42449E-03 -1.20472E+00  4.29421E-03  3.30389E-05 -9.57931E-06 -1.98128E-05  1.50000E+01
  2.05491E+01  1.96797E+01  2.01639E+01 -2.54041E-01 -1.94655E-01 -4.56734E-02  8.69987E-02  4.04497E-05 -3.40286E-05  1.90502E-06 -1.37608E-03 -5.83224E-01 -2.44526E-04  3.41272E-05  3.10842E-06  1.15062E-05  1.50000E+01
  2.05487E+01  1.96855E+01  2.01396E+01 -2.53625E-01 -2.04366E-01 -3.93788E-02  6.95284E-02  3.81029E-05 -3.33946E-05  7.38124E-07 -1.33997E-03 -6.06594E-01 -3.55577E-04  3.18096E-05  3.69845E-06  8.83584E-06  1.50000E+01
  2.03385E+01  1.96620E+01  2.00757E+01 -3.04416E-01 -1.23238E-01 -1.82543E-03  8.51226E-02  4.84803E-05 -1.23092E-05 -7.10523E-09  1.17558E-03 -4.22453E-01 -2.62756E-03  4.56988E-05  7.19592E-06  2.53088E-06  1.50000E+01
  2.03841E+01  1.96413E+01  2.02035E+01 -3.03703E-01 -7.32069E-02 -6.14063E-03  7.40425E-02  5.59955E-05 -7.30176E-05 -1.72727E-05  2.04717E-03 -2.68317E-01 -8.73057E-03  4.47888E-05  4.99942E-06  5.15911E-06  1.50000E+01
  2.04054E+01  1.96406E+01  2.02166E+01 -2.98903E-01 -8.30109E-02 -1.53411E-02  7.31892E-02  5.42678E-05 -6.63301E-05 -1.55034E-05  1.71452E-03 -2.93224E-01 -8.15496E-03  4.37265E-05  4.68647E-06  6.19643E-06  1.50000E+01
  2.04049E+01  1.96479E+01  2.01921E+01 -2.97076E-01 -1.00979E-01 -1.66736E-02  6.25986E-02  5.36756E-05 -6.55237E-05 -1.49610E-05  1.41789E-03 -3.42987E-01 -5.73814E-03  4.25824E-05  5.20995E-06  5.40247E-06  1.50000E+01
  2.00985E+01  1.96912E+01  2.01542E+01 -1.06715E-01  8.62393E-01  9.64367E-03 -3.54805E-02  8.35432E-05  1.24160E-05 -2.44763E-05  1.12730E-02  2.70016E+00 -4.70380E-03  4.98162E-05 -3.61443E-05 -3.90556E-06  1.50000E+01
  2.00839E+01  1.97073E+01  2.01656E+01 -7.02354E-02  9.07443E-01  3.36731E-03 -1.21151E-02  1.13654E-04  3.70476E-05 -4.54736E-05  1.05234E-02  2.80888E+00 -4.58111E-03  5.25179E-05 -4.25935E-05 -4.04520E-06  1.50000E+01