 TITLE="3D TRIANGULAR SURFACE DATA"
VARIABLES="X","Y","Z","U","V","W","P", "Fex", "Fey", "Fez","Finx","Finy","Finz","WSSx","WSSy","WSSz","AMForce"
 ZONE T="unstruc"N=        1757 E=        3355 F=FEPOINT  ET=TRIANGLE
  2.04304E+01  1.98153E+01  2.00976E+01  3.15773E-01 -8.33347E-01 -8.88821E-03  3.63395E-01 -1.20161E-04  2.18300E-04  5.07750E-05  4.55502E-03 -3.44873E+00 -9.64638E-04  1.32240E-05  7.43196E-06  3.96164E-06  1.50000E+01
  2.04492E+01  1.98272E+01  2.00979E+01  3.29691E-01 -8.62277E-01 -8.19978E-03  3.50128E-01 -6.26108E-05  1.10081E-04  2.52931E-05  3.06660E-03 -1.67361E+00  6.80915E-04  6.33274E-06  3.69105E-06  1.74259E-06  1.50000E+01
  2.04443E+01  1.98282E+01  2.00767E+01  3.31441E-01 -8.57184E-01 -6.46495E-03  3.64728E-01 -9.46156E-05  1.65970E-04  2.97742E-05  1.21195E-03 -2.45873E+00  1.04934E-03  8.81671E-06  5.27533E-06  2.12476E-06  1.50000E+01
  2.04292E+01  1.98065E+01  2.01287E+01  3.03524E-01 -8.26939E-01 -1.13916E-02  3.64187E-01 -9.47033E-05  1.75512E-04  5.33319E-05  1.99173E-03 -2.88609E+00 -4.28848E-04  1.23505E-05  6.55627E-06  4.23354E-06  1.50000E+01
  2.04468E+01  1.98204E+01  2.01189E+01  3.20509E-01 -8.55826E-01 -1.02981E-02  3.92941E-01 -8.59732E-05  1.53439E-04  4.33004E-05  1.73917E-03 -2.43791E+00 -1.28837E-03  9.88526E-06  5.52458E-06  3.15942E-06  1.50000E+01
  2.04628E+01  1.98331E+01  2.01101E+01  3.35828E-01 -8.81503E-01 -8.93834E-03  4.38277E-01 -8.15696E-05  1.41600E-04  3.64705E-05  1.94737E-03 -2.16060E+00  2.06309E-04  8.48979E-06  4.97657E-06  2.35812E-06  1.50000E+01
  2.04614E+01  1.98375E+01  2.00862E+01  3.41907E-01 -8.82118E-01 -7.11738E-03  3.87477E-01 -8.39816E-05  1.44906E-04  2.88197E-05  2.39454E-03 -2.17564E+00 -5.87186E-04  7.77375E-06  4.70827E-06  1.85814E-06  1.50000E+01
  2.04413E+01  1.98301E+01  2.00497E+01  3.34528E-01 -8.54542E-01 -4.36649E-03  3.89648E-01 -1.03208E-04  1.81139E-04  2.13190E-05  2.18637E-03 -2.66945E+00 -9.63505E-05  8.75518E-06  5.36143E-06  1.58395E-06  1.50000E+01
  2.04254E+01  1.98180E+01  2.00661E+01  3.20203E-01 -8.28973E-01 -6.30737E-03  3.62199E-01 -1.02315E-04  1.86055E-04  3.00447E-05  2.80471E-03 -2.91992E+00 -9.94314E-04  1.03747E-05  6.05808E-06  2.52048E-06  1.50000E+01
  2.04230E+01  1.98200E+01  2.00373E+01  3.23258E-01 -8.27206E-01 -3.66984E-03  3.57960E-01 -9.99174E-05  1.80349E-04  1.63531E-05  2.62071E-03 -2.73888E+00 -4.14937E-04  8.98127E-06  5.44261E-06  1.28902E-06  1.50000E+01
  2.04470E+01  1.98127E+01  2.01451E+01  3.09734E-01 -8.52027E-01 -1.21980E-02  4.28060E-01 -9.10058E-05  1.63900E-04  5.59127E-05  1.52067E-03 -2.61302E+00 -8.93672E-04  1.15295E-05  6.18863E-06  3.85330E-06  1.50000E+01
  2.04633E+01  1.98267E+01  2.01345E+01  3.26859E-01 -8.79115E-01 -1.09303E-02  4.33988E-01 -8.93710E-05  1.56810E-04  4.91806E-05  1.31520E-03 -2.48500E+00 -5.99908E-04  1.06492E-05  6.02153E-06  3.26020E-06  1.50000E+01
  2.03905E+01  1.97909E+01  2.00967E+01  2.87489E-01 -7.70955E-01 -9.76670E-03  3.35751E-01 -8.21169E-05  1.60990E-04  3.80966E-05  2.86613E-03 -2.73533E+00 -5.11376E-04  1.14529E-05  6.07869E-06  3.57687E-06  1.50000E+01
  2.03888E+01  1.97954E+01  2.00678E+01  2.94224E-01 -7.71838E-01 -7.13701E-03  3.03706E-01 -8.52418E-05  1.64629E-04  2.76841E-05  3.16575E-03 -2.69826E+00 -3.57363E-04  1.02689E-05  5.72010E-06  2.59595E-06  1.50000E+01
  2.03713E+01  1.97826E+01  2.00819E+01  2.78620E-01 -7.42504E-01 -8.85598E-03  2.87252E-01 -7.87010E-05  1.57351E-04  3.22976E-05  3.16888E-03 -2.53903E+00 -4.77850E-04  1.05104E-05  5.55104E-06  3.17052E-06  1.50000E+01
  2.04103E+01  1.97993E+01  2.01120E+01  2.96261E-01 -7.99827E-01 -1.05756E-02  3.71914E-01 -9.35994E-05  1.77855E-04  4.80980E-05  3.10246E-03 -3.01189E+00 -5.73844E-04  1.24846E-05  6.62561E-06  4.14509E-06  1.50000E+01
  2.03923E+01  1.97847E+01  2.01251E+01  2.78165E-01 -7.68933E-01 -1.21024E-02  3.27386E-01 -7.74116E-05  1.53766E-04  4.72146E-05  2.61476E-03 -2.65743E+00 -6.35059E-04  1.22836E-05  6.14891E-06  4.42485E-06  1.50000E+01
  2.04115E+01  1.97917E+01  2.01406E+01  2.85260E-01 -7.96628E-01 -1.27129E-02  3.71376E-01 -8.16354E-05  1.57647E-04  5.33579E-05  2.25703E-03 -2.71440E+00 -4.79442E-04  1.27954E-05  6.46483E-06  4.58938E-06  1.50000E+01
  2.04084E+01  1.98048E+01  2.00823E+01  3.04358E-01 -8.00998E-01 -8.06972E-03  3.14589E-01 -9.60343E-05  1.81345E-04  3.64042E-05  3.13973E-03 -3.02854E+00 -3.59590E-04  1.16629E-05  6.52671E-06  3.19829E-06  1.50000E+01
  2.04061E+01  1.98080E+01  2.00528E+01  3.09167E-01 -8.00193E-01 -5.42288E-03  3.38808E-01 -9.55998E-05  1.77420E-04  2.26168E-05  2.84131E-03 -2.77376E+00 -4.14211E-04  9.63869E-06  5.62941E-06  1.84285E-06  1.50000E+01
  2.04777E+01  1.98457E+01  2.00983E+01  3.50739E-01 -9.05505E-01 -7.75356E-03  4.38509E-01 -9.84743E-05  1.67446E-04  3.77903E-05  1.82569E-03 -2.44833E+00 -3.01700E-04  9.08741E-06  5.51045E-06  2.25548E-06  1.50000E+01
  2.04762E+01  1.98496E+01  2.00728E+01  3.56002E-01 -9.05466E-01 -5.79958E-03  3.92513E-01 -1.02437E-04  1.73368E-04  2.87994E-05  2.21932E-03 -2.53807E+00 -4.29870E-04  8.77042E-06  5.46624E-06  1.85353E-06  1.50000E+01
  2.04791E+01  1.98404E+01  2.01235E+01  3.43408E-01 -9.04753E-01 -9.57630E-03  4.51904E-01 -9.62077E-05  1.64728E-04  4.67291E-05  1.87219E-03 -2.51416E+00 -9.16101E-05  1.00156E-05  5.89023E-06  2.80476E-06  1.50000E+01
  2.04590E+01  1.98401E+01  2.00611E+01  3.45440E-01 -8.80621E-01 -4.99180E-03  3.73599E-01 -1.03185E-04  1.76555E-04  2.47357E-05  1.28694E-03 -2.52747E+00  1.22990E-04  8.67748E-06  5.39500E-06  1.68021E-06  1.50000E+01
  2.04747E+01  1.98520E+01  2.00464E+01  3.59436E-01 -9.04899E-01 -3.59443E-03  4.18082E-01 -1.16239E-04  1.94309E-04  2.05406E-05  2.03484E-03 -2.67482E+00 -2.26631E-06  8.61597E-06  5.50485E-06  1.34503E-06  1.50000E+01
  2.04048E+01  1.98097E+01  2.00240E+01  3.11850E-01 -7.99537E-01 -2.63299E-03  3.23837E-01 -9.83542E-05  1.80106E-04  1.08101E-05  3.07749E-03 -2.66582E+00 -2.90468E-04  8.51947E-06  5.11593E-06  8.73063E-07  1.50000E+01
  2.04397E+01  1.98315E+01  2.00218E+01  3.36597E-01 -8.53273E-01 -1.93411E-03  3.99788E-01 -1.06279E-04  1.85936E-04  9.82258E-06  2.67225E-03 -2.70905E+00 -1.20725E-04  8.29988E-06  5.18485E-06  8.19887E-07  1.50000E+01
  2.04220E+01  1.98208E+01  2.00089E+01  3.24696E-01 -8.26336E-01 -9.57916E-04  3.51684E-01 -9.83084E-05  1.76999E-04  4.05434E-06  3.00954E-03 -2.68398E+00 -1.82346E-04  8.41767E-06  5.17538E-06  3.63008E-07  1.50000E+01
  2.03943E+01  1.97770E+01  2.01526E+01  2.66740E-01 -7.66152E-01 -1.40333E-02  3.49732E-01 -7.28158E-05  1.45932E-04  5.44439E-05  2.39974E-03 -2.54344E+00 -6.43385E-04  1.30422E-05  6.20721E-06  4.95445E-06  1.50000E+01
  2.04134E+01  1.97832E+01  2.01677E+01  2.72979E-01 -7.93610E-01 -1.44476E-02  3.87164E-01 -8.24594E-05  1.58863E-04  6.44127E-05  2.23332E-03 -2.57959E+00 -6.30737E-04  1.35794E-05  6.50445E-06  5.15277E-06  1.50000E+01
  2.07624E+01  1.99509E+01  1.96689E+01  4.74485E-01 -1.31252E+00  1.91544E-02  6.16290E-01 -2.05347E-04  3.19723E-04 -2.04543E-04  1.91119E-03 -4.13090E+00 -3.55201E-04  2.09723E-05  1.67085E-05  1.61578E-06  1.50000E+01
  2.07438E+01  1.99470E+01  1.96842E+01  4.67625E-01 -1.28474E+00  1.67841E-02  6.43636E-01 -2.17513E-04  3.27017E-04 -2.00572E-04  1.77143E-03 -4.04000E+00 -3.11835E-04  2.02668E-05  1.59299E-05  7.23646E-07  1.50000E+01
  2.07575E+01  1.99645E+01  1.96956E+01  4.91212E-01 -1.30639E+00  1.77362E-02  6.24439E-01 -2.14571E-04  3.32071E-04 -1.92891E-04  1.91023E-03 -4.10781E+00 -3.23743E-04  2.10985E-05  1.66195E-05  1.43408E-06  1.50000E+01
  2.07391E+01  1.99600E+01  1.97111E+01  4.83694E-01 -1.27925E+00  1.55665E-02  6.32002E-01 -2.21299E-04  3.32586E-04 -1.84677E-04  1.79043E-03 -4.01977E+00 -2.79038E-04  2.08252E-05  1.62031E-05  6.44952E-07  1.50000E+01
  2.07529E+01  1.99771E+01  1.97229E+01  5.06616E-01 -1.30076E+00  1.62265E-02  6.14928E-01 -2.14505E-04  3.32679E-04 -1.73947E-04  1.90145E-03 -4.08679E+00 -2.98246E-04  2.17720E-05  1.70094E-05  1.47252E-06  1.50000E+01
  2.08201E+01  1.99585E+01  1.96242E+01  4.92632E-01 -1.40030E+00  2.99797E-02  3.05359E-01 -1.24623E-04  2.48156E-04 -1.76585E-04  2.72651E-03 -4.41727E+00  7.78331E-05  2.66465E-05  2.07085E-05  4.36612E-06  1.50000E+01
  2.08006E+01  1.99568E+01  1.96388E+01  4.87207E-01 -1.37036E+00  2.57715E-02  4.84431E-01 -1.57158E-04  2.79938E-04 -1.92978E-04  2.44999E-03 -4.31983E+00 -1.56599E-04  2.28042E-05  1.84058E-05  3.66520E-06  1.50000E+01
  2.08141E+01  1.99742E+01  1.96500E+01  5.11808E-01 -1.39212E+00  2.77335E-02  3.48737E-01 -1.23919E-04  2.43384E-04 -1.57862E-04  2.64947E-03 -4.38966E+00 -1.51712E-05  2.62100E-05  2.02829E-05  4.05910E-06  1.50000E+01
  2.04807E+01  1.98337E+01  2.01489E+01  3.34117E-01 -9.03728E-01 -1.13740E-02  4.53268E-01 -9.77850E-05  1.68908E-04  5.77888E-05  1.89943E-03 -2.63434E+00 -4.91639E-04  1.16926E-05  6.69582E-06  3.43218E-06  1.50000E+01
  2.08086E+01  1.99888E+01  1.96765E+01  5.29588E-01 -1.38447E+00  2.53843E-02  4.74056E-01 -1.36458E-04  2.58947E-04 -1.53835E-04  2.60403E-03 -4.36385E+00 -7.11109E-05  2.51705E-05  1.92033E-05  3.41237E-06  1.50000E+01
  2.08278E+01  1.99911E+01  1.96613E+01  5.36096E-01 -1.41358E+00  2.94779E-02  2.80407E-01 -8.70130E-05  2.04514E-04 -1.21263E-04  2.80046E-03 -4.45894E+00  8.09015E-05  2.86148E-05  2.17479E-05  4.95596E-06  1.50000E+01
  2.04908E+01  1.98639E+01  2.00322E+01  3.73218E-01 -9.29410E-01 -2.26229E-03  4.39343E-01 -1.20451E-04  1.99288E-04  1.43622E-05  2.49521E-03 -2.77971E+00  1.83265E-05  8.57350E-06  5.61795E-06  8.47284E-07  1.50000E+01
  2.04737E+01  1.98534E+01  2.00194E+01  3.61449E-01 -9.04401E-01 -1.31877E-03  4.47799E-01 -1.23248E-04  2.05536E-04  9.09618E-06  2.56305E-03 -2.74581E+00  9.72139E-05  8.16022E-06  5.29779E-06  6.69408E-07  1.50000E+01
  2.04302E+01  1.97981E+01  2.01562E+01  2.91720E-01 -8.23333E-01 -1.33046E-02  4.18361E-01 -8.91532E-05  1.65910E-04  6.17656E-05  1.88221E-03 -2.66091E+00 -5.66317E-04  1.27742E-05  6.48489E-06  4.58683E-06  1.50000E+01
  2.04324E+01  1.97893E+01  2.01826E+01  2.79017E-01 -8.20691E-01 -1.47974E-02  4.08249E-01 -9.58335E-05  1.76514E-04  7.65632E-05  2.38805E-03 -2.59745E+00 -7.30837E-04  1.37968E-05  6.70647E-06  5.11928E-06  1.50000E+01
  2.04487E+01  1.98044E+01  2.01713E+01  2.98025E-01 -8.49564E-01 -1.37795E-02  4.19524E-01 -9.84616E-05  1.76584E-04  7.10579E-05  2.12004E-03 -2.62862E+00 -7.65633E-04  1.29658E-05  6.68684E-06  4.50881E-06  1.50000E+01
  2.04042E+01  1.98100E+01  1.99956E+01  3.12433E-01 -7.98936E-01  2.42611E-04  3.61515E-01 -9.61073E-05  1.75779E-04 -1.62315E-06  3.19972E-03 -2.60653E+00 -1.18360E-04  8.14768E-06  4.93265E-06 -1.23254E-07  1.50000E+01
  2.04392E+01  1.98316E+01  1.99938E+01  3.36991E-01 -8.52523E-01  6.32989E-04  4.02939E-01 -1.05888E-04  1.85423E-04 -2.61151E-06  3.05017E-03 -2.70273E+00 -7.97340E-06  8.12090E-06  5.09587E-06 -2.32633E-07  1.50000E+01
  2.04217E+01  1.98204E+01  1.99808E+01  3.24147E-01 -8.25604E-01  1.79159E-03  3.52510E-01 -9.73924E-05  1.75396E-04 -7.85100E-06  3.14582E-03 -2.64661E+00 -8.54832E-06  8.33055E-06  5.10939E-06 -5.89655E-07  1.50000E+01
  2.07628E+01  2.00048E+01  1.97631E+01  5.42727E-01 -1.31704E+00  1.50572E-02  6.13179E-01 -1.99697E-04  3.25343E-04 -1.40411E-04  2.01926E-03 -4.13481E+00 -2.60908E-04  2.37599E-05  1.81431E-05  1.86014E-06  1.50000E+01
  2.07807E+01  2.00101E+01  1.97473E+01  5.51980E-01 -1.34365E+00  1.75651E-02  4.99579E-01 -1.72119E-04  2.97474E-04 -1.35382E-04  2.22178E-03 -4.22504E+00 -2.32299E-04  2.68168E-05  2.02775E-05  2.53877E-06  1.50000E+01
  2.07668E+01  1.99938E+01  1.97350E+01  5.29387E-01 -1.32223E+00  1.69112E-02  6.20889E-01 -2.00249E-04  3.24765E-04 -1.58949E-04  2.04426E-03 -4.15475E+00 -2.79905E-04  2.34651E-05  1.81811E-05  2.11454E-06  1.50000E+01
  2.04947E+01  1.98540E+01  2.01114E+01  3.59633E-01 -9.29737E-01 -8.34352E-03  4.70926E-01 -1.09206E-04  1.82813E-04  4.59332E-05  2.21278E-03 -2.66515E+00 -2.57656E-04  1.00819E-05  6.15059E-06  2.50853E-06  1.50000E+01
  2.01391E+01  1.96294E+01  2.01900E+01  5.87714E-02 -2.81665E-01 -1.19065E-02  1.81254E-01  2.93369E-06  9.26101E-05  3.96959E-05  4.23856E-03 -8.94686E-01 -4.73867E-03  3.60839E-05  1.28659E-05  4.17076E-06  1.50000E+01
  2.01209E+01  1.96171E+01  2.02011E+01  3.40345E-02 -2.27867E-01 -7.02325E-03  7.41429E-02  3.37628E-05  4.94685E-05  1.77991E-05  2.99375E-03 -7.25988E-01 -4.66587E-03  4.66142E-05  1.60934E-05  3.46932E-06  1.50000E+01
  2.01415E+01  1.96190E+01  2.02140E+01  3.66166E-02 -2.60305E-01 -6.98266E-03  7.80079E-02  3.66697E-05  4.92806E-05  1.95776E-05  2.97051E-03 -8.28544E-01 -4.24099E-03  4.96477E-05  1.75397E-05  4.60826E-06  1.50000E+01
  2.08174E+01  2.00186E+01  1.97157E+01  5.69205E-01 -1.39865E+00  2.39757E-02  2.85450E-01 -1.04053E-04  2.40969E-04 -1.15850E-04  2.75953E-03 -4.40902E+00 -3.95104E-05  3.41770E-05  2.58823E-05  6.14065E-06  1.50000E+01
  2.08362E+01  2.00216E+01  1.97001E+01  5.76797E-01 -1.42684E+00  2.78122E-02  2.72443E-01 -6.56145E-05  1.50782E-04 -7.58616E-05  3.26034E-02 -2.29932E+00  4.97463E-03  1.92464E-05  1.47231E-05  4.11454E-06  1.50000E+01
  2.08223E+01  2.00054E+01  1.96882E+01  5.53390E-01 -1.40582E+00  2.67407E-02  3.47614E-01 -1.21129E-04  2.60244E-04 -1.41213E-04  2.80722E-03 -4.43317E+00  3.35701E-05  3.11842E-05  2.38179E-05  5.62590E-06  1.50000E+01
  2.07712E+01  1.99817E+01  1.97073E+01  5.14639E-01 -1.32797E+00  1.87244E-02  5.85416E-01 -2.02438E-04  3.26996E-04 -1.79231E-04  2.06379E-03 -4.17605E+00 -2.93512E-04  2.22660E-05  1.74496E-05  2.17553E-06  1.50000E+01
  2.07850E+01  1.99984E+01  1.97193E+01  5.37880E-01 -1.34949E+00  1.96869E-02  5.91051E-01 -1.85100E-04  3.13698E-04 -1.61905E-04  2.27772E-03 -4.24603E+00 -2.21894E-04  2.47279E-05  1.90562E-05  2.82138E-06  1.50000E+01
  2.04042E+01  1.98089E+01  1.99677E+01  3.10844E-01 -7.98137E-01  3.12386E-03  3.34963E-01 -9.38225E-05  1.72448E-04 -1.33376E-05  3.10677E-03 -2.56825E+00  7.02262E-05  8.38749E-06  5.00101E-06 -1.05041E-06  1.50000E+01
  2.03874E+01  1.97982E+01  2.00390E+01  2.98374E-01 -7.71926E-01 -4.33046E-03  2.84313E-01 -9.13410E-05  1.72283E-04  1.66938E-05  3.19779E-03 -2.61550E+00 -3.23072E-04  8.70848E-06  5.04534E-06  1.47493E-06  1.50000E+01
  2.03866E+01  1.97994E+01  2.00104E+01  3.00205E-01 -7.71689E-01 -1.38073E-03  2.69582E-01 -9.37610E-05  1.76032E-04  4.76774E-06  3.27006E-03 -2.55430E+00 -1.96359E-04  8.14487E-06  4.81640E-06  4.03279E-07  1.50000E+01
  2.08067E+01  1.99409E+01  1.96133E+01  4.67627E-01 -1.37838E+00  2.75969E-02  5.02758E-01 -1.53156E-04  2.79973E-04 -2.09913E-04  2.54989E-03 -4.34720E+00 -8.66688E-05  2.31166E-05  1.87059E-05  3.85335E-06  1.50000E+01
  2.07349E+01  1.99719E+01  1.97386E+01  4.98434E-01 -1.27423E+00  1.42472E-02  6.44511E-01 -2.20140E-04  3.33731E-04 -1.65328E-04  1.79137E-03 -3.99917E+00 -2.51178E-04  2.11224E-05  1.63297E-05  6.90384E-07  1.50000E+01
  2.07488E+01  1.99886E+01  1.97507E+01  5.20649E-01 -1.29564E+00  1.46446E-02  6.26035E-01 -2.12682E-04  3.31872E-04 -1.54040E-04  1.87154E-03 -4.06616E+00 -2.73812E-04  2.20335E-05  1.70085E-05  1.29357E-06  1.50000E+01
  2.03699E+01  1.97863E+01  2.00534E+01  2.84264E-01 -7.43461E-01 -6.04879E-03  2.20377E-01 -7.88797E-05  1.55419E-04  2.08006E-05  3.37718E-03 -2.51588E+00 -3.48803E-04  9.45257E-06  5.26390E-06  1.90909E-06  1.50000E+01
  2.03513E+01  1.97771E+01  2.00394E+01  2.74086E-01 -7.15180E-01 -4.78792E-03  2.04407E-01 -7.66974E-05  1.54011E-04  1.53635E-05  3.51675E-03 -2.37451E+00 -2.98912E-04  9.02244E-06  5.01300E-06  1.37087E-06  1.50000E+01
  2.03524E+01  1.97741E+01  2.00674E+01  2.69556E-01 -7.14224E-01 -7.79976E-03  2.51181E-01 -7.60589E-05  1.55089E-04  2.66147E-05  3.47011E-03 -2.39040E+00 -4.56037E-04  9.92850E-06  5.25926E-06  2.60634E-06  1.50000E+01
  2.04932E+01  1.98586E+01  2.00854E+01  3.65938E-01 -9.29871E-01 -6.48480E-03  4.44343E-01 -1.14677E-04  1.90795E-04  3.68242E-05  2.25764E-03 -2.66925E+00 -2.75866E-04  9.38912E-06  5.88551E-06  2.02176E-06  1.50000E+01
  2.04918E+01  1.98619E+01  2.00590E+01  3.70446E-01 -9.29718E-01 -4.45643E-03  4.49934E-01 -1.17105E-04  1.94268E-04  2.59212E-05  2.47766E-03 -2.72412E+00 -2.41210E-04  8.86990E-06  5.69670E-06  1.52632E-06  1.50000E+01
  2.05072E+01  1.98756E+01  2.00180E+01  3.86599E-01 -9.53740E-01 -1.03617E-03  4.89508E-01 -1.31305E-04  2.13092E-04  8.43534E-06  2.60683E-03 -2.86784E+00  4.02214E-05  8.56967E-06  5.73077E-06  5.00835E-07  1.50000E+01
  2.04903E+01  1.98647E+01  2.00050E+01  3.74322E-01 -9.29080E-01 -2.92204E-05  4.38599E-01 -1.21799E-04  2.01353E-04  2.06158E-06  2.69288E-03 -2.81474E+00  1.34838E-04  8.37247E-06  5.53662E-06  9.09138E-08  1.50000E+01
  2.07897E+01  1.99856E+01  1.96918E+01  5.22362E-01 -1.35589E+00  2.17798E-02  5.88505E-01 -1.79830E-04  3.07702E-04 -1.76579E-04  2.31592E-03 -4.26918E+00 -2.14735E-04  2.41171E-05  1.87085E-05  2.83943E-06  1.50000E+01
  2.07949E+01  1.99717E+01  1.96650E+01  5.05463E-01 -1.36286E+00  2.38192E-02  5.23982E-01 -1.65732E-04  2.89685E-04 -1.82667E-04  2.38193E-03 -4.29434E+00 -1.96193E-04  2.38520E-05  1.86139E-05  2.97544E-06  1.50000E+01
  2.07254E+01  1.99425E+01  1.96995E+01  4.60634E-01 -1.25765E+00  1.49690E-02  6.61180E-01 -2.22977E-04  3.27130E-04 -1.92028E-04  1.73280E-03 -3.95237E+00 -2.23334E-04  1.94898E-05  1.51795E-05  1.56650E-07  1.50000E+01
  2.03750E+01  1.97704E+01  2.01377E+01  2.60180E-01 -7.38267E-01 -1.35527E-02  3.12825E-01 -7.52741E-05  1.53186E-04  5.22776E-05  2.78178E-03 -2.46452E+00 -7.34844E-04  1.27590E-05  6.04572E-06  4.79939E-06  1.50000E+01
  2.03579E+01  1.97562E+01  2.01500E+01  2.41814E-01 -7.06996E-01 -1.48992E-02  2.78491E-01 -7.22008E-05  1.51700E-04  5.68517E-05  2.88744E-03 -2.32786E+00 -9.10864E-04  1.36057E-05  6.06731E-06  5.32209E-06  1.50000E+01
  2.03773E+01  1.97623E+01  2.01646E+01  2.47862E-01 -7.35135E-01 -1.52641E-02  3.19186E-01 -6.86643E-05  1.43024E-04  5.83119E-05  2.66827E-03 -2.41135E+00 -8.42401E-04  1.39588E-05  6.24372E-06  5.55236E-06  1.50000E+01
  2.08035E+01  2.00023E+01  1.97036E+01  5.45950E-01 -1.37738E+00  2.29763E-02  4.95842E-01 -1.54929E-04  2.88208E-04 -1.54363E-04  2.55829E-03 -4.33935E+00 -1.04332E-04  2.59636E-05  1.97181E-05  3.45870E-06  1.50000E+01
  2.07489E+01  1.99330E+01  1.96578E+01  4.50284E-01 -1.29071E+00  1.78815E-02  6.34351E-01 -2.17030E-04  3.24900E-04 -2.19299E-04  1.77417E-03 -4.06229E+00 -3.40809E-04  2.00331E-05  1.59460E-05  8.98272E-07  1.50000E+01
  2.07302E+01  1.99291E+01  1.96730E+01  4.43897E-01 -1.26300E+00  1.59088E-02  6.33253E-01 -2.22882E-04  3.25299E-04 -2.10524E-04  1.70019E-03 -3.97194E+00 -2.52078E-04  1.95930E-05  1.53429E-05  1.19832E-07  1.50000E+01
  2.04512E+01  1.97952E+01  2.01971E+01  2.84945E-01 -8.47572E-01 -1.50097E-02  4.44580E-01 -1.09495E-04  1.93858E-04  8.98983E-05  2.67516E-03 -2.63781E+00 -8.23835E-04  1.42799E-05  7.05257E-06  5.17732E-06  1.50000E+01
  2.04672E+01  1.98107E+01  2.01859E+01  3.04378E-01 -8.75767E-01 -1.40275E-02  4.67792E-01 -1.10145E-04  1.91065E-04  8.24843E-05  2.52538E-03 -2.67384E+00 -7.73466E-04  1.34248E-05  7.02386E-06  4.57488E-06  1.50000E+01
  2.04351E+01  1.97794E+01  2.02084E+01  2.64827E-01 -8.18196E-01 -1.58527E-02  4.00611E-01 -1.04393E-04  1.89984E-04  9.42517E-05  2.64408E-03 -2.58467E+00 -8.76993E-04  1.51442E-05  7.01516E-06  5.82742E-06  1.50000E+01
  2.04392E+01  1.98304E+01  1.99661E+01  3.35387E-01 -8.51768E-01  3.21998E-03  3.89890E-01 -1.04523E-04  1.83751E-04 -1.46678E-05  3.11742E-03 -2.68900E+00  1.24882E-04  8.36278E-06  5.16470E-06 -1.14977E-06  1.50000E+01
  2.07813E+01  1.99542E+01  1.96538E+01  4.81078E-01 -1.34107E+00  2.21458E-02  5.81066E-01 -1.86408E-04  3.05893E-04 -2.03475E-04  2.15254E-03 -4.22478E+00 -3.06760E-04  2.17354E-05  1.75106E-05  2.64741E-06  1.50000E+01
  2.07871E+01  1.99390E+01  1.96279E+01  4.62342E-01 -1.34839E+00  2.37005E-02  5.58843E-01 -1.81311E-04  3.02081E-04 -2.18924E-04  2.22456E-03 -4.24969E+00 -2.85785E-04  2.15231E-05  1.76623E-05  3.02640E-06  1.50000E+01
  2.07679E+01  1.99363E+01  1.96427E+01  4.56487E-01 -1.31916E+00  2.04607E-02  6.00647E-01 -2.03642E-04  3.17302E-04 -2.22732E-04  1.95917E-03 -4.15526E+00 -3.61793E-04  2.07137E-05  1.66658E-05  1.75598E-06  1.50000E+01
  2.07117E+01  1.99247E+01  1.96882E+01  4.37420E-01 -1.23590E+00  1.44514E-02  6.39605E-01 -2.22042E-04  3.20244E-04 -1.98497E-04  1.71337E-03 -3.88476E+00 -1.40900E-04  1.90786E-05  1.46252E-05 -5.54687E-07  1.50000E+01
  2.05121E+01  1.98623E+01  2.01250E+01  3.68478E-01 -9.54448E-01 -8.85371E-03  4.91160E-01 -1.18334E-04  1.95535E-04  5.44715E-05  2.56839E-03 -2.81013E+00 -2.75806E-04  1.10896E-05  6.86339E-06  2.57192E-06  1.50000E+01
  2.04965E+01  1.98481E+01  2.01372E+01  3.51508E-01 -9.29393E-01 -1.00762E-02  4.65083E-01 -1.06657E-04  1.79933E-04  5.59246E-05  2.39331E-03 -2.71021E+00 -2.42299E-04  1.11978E-05  6.68021E-06  2.94884E-06  1.50000E+01
  2.03730E+01  1.97773E+01  2.01101E+01  2.70533E-01 -7.40782E-01 -1.13890E-02  2.89225E-01 -7.72277E-05  1.55870E-04  4.25991E-05  2.99318E-03 -2.51916E+00 -6.01052E-04  1.15489E-05  5.78938E-06  3.96473E-06  1.50000E+01
  2.03539E+01  1.97696E+01  2.00954E+01  2.62572E-01 -7.12551E-01 -1.05515E-02  2.23134E-01 -7.84495E-05  1.60448E-04  3.83198E-05  3.27717E-03 -2.38728E+00 -6.03508E-04  1.11979E-05  5.64208E-06  3.55475E-06  1.50000E+01
  2.01232E+01  1.96065E+01  2.02248E+01  1.05186E-02 -2.02005E-01  0.00000E+00 -8.33687E-02  3.43717E-05 -6.38855E-06 -5.51995E-06  4.10485E+00  1.11931E+01 -1.91363E+01  2.82302E-05  9.33920E-06  2.50573E-06  1.50000E+01
  2.08473E+01  1.99927E+01  1.96465E+01  5.41720E-01 -1.44309E+00  3.39853E-02 -5.88459E-02 -2.41456E-05  7.72724E-05 -4.45953E-05  3.15548E-02 -2.32746E+00  6.50811E-03  1.51581E-05  1.14094E-05  2.82086E-06  1.50000E+01
  2.08337E+01  1.99758E+01  1.96352E+01  5.17338E-01 -1.42190E+00  3.21377E-02 -4.59204E-02 -8.36487E-05  2.03336E-04 -1.30941E-04  2.83361E-03 -4.48660E+00  1.76589E-04  3.16298E-05  2.43680E-05  5.90706E-06  1.50000E+01
  2.07355E+01  1.99147E+01  1.96469E+01  4.25932E-01 -1.26878E+00  1.67015E-02  6.61340E-01 -2.27267E-04  3.29101E-04 -2.33130E-04  1.69448E-03 -3.99360E+00 -2.76585E-04  2.01085E-05  1.56883E-05 -2.98281E-08  1.50000E+01
  2.07167E+01  1.99108E+01  1.96620E+01  4.20011E-01 -1.24107E+00  1.51280E-02  6.66239E-01 -2.27786E-04  3.25366E-04 -2.21443E-04  1.67334E-03 -3.90366E+00 -1.60695E-04  1.97218E-05  1.50472E-05 -8.07353E-07  1.50000E+01
  2.03864E+01  1.97990E+01  1.99823E+01  2.99761E-01 -7.71122E-01  1.63168E-03  2.70468E-01 -9.05965E-05  1.70703E-04 -7.14784E-06  3.20367E-03 -2.50872E+00 -8.03580E-06  7.99567E-06  4.72048E-06 -6.57369E-07  1.50000E+01
  2.04986E+01  1.98409E+01  2.01630E+01  3.41584E-01 -9.29008E-01 -1.16778E-02  4.83999E-01 -1.10883E-04  1.86952E-04  6.90121E-05  2.35579E-03 -2.76227E+00 -4.57365E-04  1.24320E-05  7.21441E-06  3.49876E-06  1.50000E+01
  2.03967E+01  1.97682E+01  2.01793E+01  2.53675E-01 -7.63046E-01 -1.55349E-02  3.61092E-01 -7.69261E-05  1.53745E-04  6.75510E-05  2.52033E-03 -2.47704E+00 -7.93037E-04  1.44567E-05  6.52515E-06  5.71820E-06  1.50000E+01
  2.04160E+01  1.97739E+01  2.01939E+01  2.59317E-01 -7.90707E-01 -1.57403E-02  4.10491E-01 -9.11022E-05  1.72858E-04  8.07182E-05  2.50866E-03 -2.53016E+00 -8.23949E-04  1.48392E-05  6.72617E-06  5.89540E-06  1.50000E+01
  2.01571E+01  1.96419E+01  2.01787E+01  8.20194E-02 -3.29674E-01 -1.47647E-02  1.73108E-01 -9.62300E-06  9.84001E-05  4.23077E-05  4.20398E-03 -1.04592E+00 -3.80567E-03  2.87907E-05  1.05028E-05  4.56760E-06  1.50000E+01
  2.01368E+01  1.96386E+01  2.01657E+01  7.84483E-02 -2.99140E-01 -1.43917E-02  1.52984E-01 -3.56220E-06  9.20920E-05  3.55007E-05  4.71271E-03 -9.45776E-01 -4.07851E-03  3.05771E-05  1.12779E-05  3.76458E-06  1.50000E+01
  2.07933E+01  1.99228E+01  1.96026E+01  4.42352E-01 -1.35621E+00  2.51048E-02  5.54379E-01 -1.75888E-04  3.03449E-04 -2.38129E-04  2.33130E-03 -4.27668E+00 -2.38053E-04  2.34484E-05  1.88851E-05  2.93979E-06  1.50000E+01
  2.03328E+01  1.97677E+01  2.00256E+01  2.63538E-01 -6.86662E-01 -3.35815E-03  1.88417E-01 -6.48424E-05  1.36869E-04  9.09106E-06  3.51498E-03 -2.25117E+00 -2.05917E-04  9.05643E-06  4.98175E-06  8.38521E-07  1.50000E+01
  2.03336E+01  1.97655E+01  2.00533E+01  2.60141E-01 -6.85828E-01 -6.57205E-03  2.23272E-01 -7.00150E-05  1.47020E-04  2.00183E-05  3.55869E-03 -2.26233E+00 -4.09331E-04  9.60176E-06  5.10410E-06  1.87577E-06  1.50000E+01
  2.05104E+01  1.98675E+01  2.00987E+01  3.75637E-01 -9.54392E-01 -7.10765E-03  4.50582E-01 -1.21802E-04  2.00159E-04  4.39886E-05  2.52283E-03 -2.79870E+00 -2.49921E-04  1.01975E-05  6.43437E-06  2.22627E-06  1.50000E+01
  2.05090E+01  1.98715E+01  2.00721E+01  3.81038E-01 -9.54244E-01 -5.21132E-03  4.83533E-01 -1.25335E-04  2.05112E-04  3.29661E-05  2.54202E-03 -2.81090E+00 -1.99968E-04  9.46936E-06  6.11267E-06  1.73349E-06  1.50000E+01
  2.03605E+01  1.97475E+01  2.01765E+01  2.28413E-01 -7.03203E-01 -1.63179E-02  3.16899E-01 -6.49279E-05  1.41044E-04  6.22232E-05  2.68233E-03 -2.29457E+00 -1.00648E-03  1.49526E-05  6.22934E-06  6.23461E-06  1.50000E+01
  2.03436E+01  1.97325E+01  2.01883E+01  2.08345E-01 -6.70205E-01 -1.71217E-02  3.24183E-01 -6.38278E-05  1.43378E-04  6.80555E-05  2.66797E-03 -2.17610E+00 -1.17351E-03  1.60725E-05  6.29014E-06  6.76876E-06  1.50000E+01
  2.03633E+01  1.97375E+01  2.02024E+01  2.13209E-01 -6.98829E-01 -1.71535E-02  3.38290E-01 -6.64021E-05  1.44682E-04  7.32160E-05  2.53597E-03 -2.26402E+00 -1.11016E-03  1.65928E-05  6.58998E-06  6.90627E-06  1.50000E+01
  2.06981E+01  1.99065E+01  1.96771E+01  4.14023E-01 -1.21389E+00  1.40144E-02  6.55317E-01 -2.23913E-04  3.19191E-04 -2.08505E-04  1.72079E-03 -3.81651E+00 -4.12524E-05  1.91203E-05  1.44189E-05 -1.16447E-06  1.50000E+01
  2.03690E+01  1.97884E+01  2.00251E+01  2.87436E-01 -7.43791E-01 -3.05529E-03  1.56840E-01 -8.98007E-05  1.72572E-04  1.08934E-05  3.42441E-03 -2.47603E+00 -2.35557E-04  8.64060E-06  4.96848E-06  9.09707E-07  1.50000E+01
  2.03685E+01  1.97889E+01  1.99969E+01  2.88211E-01 -7.43588E-01  5.11351E-05  1.50674E-01 -9.15586E-05  1.75326E-04 -1.10671E-06  3.32389E-03 -2.43781E+00 -6.91649E-05  8.32884E-06  4.83653E-06 -1.27087E-07  1.50000E+01
  2.05079E+01  1.98742E+01  2.00452E+01  3.84695E-01 -9.54011E-01 -3.17260E-03  4.78530E-01 -1.29311E-04  2.10528E-04  2.11591E-05  2.62682E-03 -2.83908E+00 -1.15926E-04  8.96771E-06  5.90929E-06  1.21357E-06  1.50000E+01
  2.07737E+01  1.99208E+01  1.96172E+01  4.37258E-01 -1.32628E+00  2.16257E-02  6.06570E-01 -2.01320E-04  3.19223E-04 -2.43020E-04  2.01703E-03 -4.17954E+00 -3.55200E-04  2.22779E-05  1.77771E-05  1.70761E-06  1.50000E+01
  2.07545E+01  1.99180E+01  1.96320E+01  4.31722E-01 -1.29715E+00  1.88391E-02  6.26675E-01 -2.19032E-04  3.27352E-04 -2.41105E-04  1.81394E-03 -4.08583E+00 -3.52032E-04  2.08997E-05  1.64018E-05  5.82831E-07  1.50000E+01
  2.03557E+01  1.97636E+01  2.01230E+01  2.53263E-01 -7.10139E-01 -1.29493E-02  2.48935E-01 -7.58786E-05  1.57135E-04  4.85545E-05  3.08576E-03 -2.36264E+00 -7.59199E-04  1.24095E-05  5.91480E-06  4.41830E-06  1.50000E+01
  2.03365E+01  1.97565E+01  2.01085E+01  2.45999E-01 -6.81838E-01 -1.21974E-02  2.32699E-01 -7.34831E-05  1.55832E-04  4.26631E-05  3.25743E-03 -2.25284E+00 -7.78419E-04  1.19952E-05  5.73333E-06  4.00568E-06  1.50000E+01
  2.05400E+01  1.98981E+01  1.99895E+01  4.12176E-01 -1.00174E+00  1.07010E-03  5.09209E-01 -1.35035E-04  2.16215E-04 -5.23688E-06  2.56882E-03 -3.04320E+00  5.43376E-05  9.47807E-06  6.49773E-06 -2.80811E-07  1.50000E+01
  2.05236E+01  1.98864E+01  1.99762E+01  3.98794E-01 -9.77687E-01  2.12213E-03  5.20679E-01 -1.40974E-04  2.25956E-04 -1.22942E-05  2.62449E-03 -2.97753E+00  1.27367E-04  9.09412E-06  6.13645E-06 -7.46756E-07  1.50000E+01
  2.05236E+01  1.98870E+01  2.00038E+01  3.99571E-01 -9.77836E-01  7.15313E-05  5.24489E-01 -1.38259E-04  2.21938E-04  1.68477E-06  2.60002E-03 -2.95607E+00  4.54163E-05  8.75178E-06  5.93789E-06  9.37063E-08  1.50000E+01
  2.07800E+01  1.99043E+01  1.95922E+01  4.16842E-01 -1.33387E+00  2.26164E-02  6.62405E-01 -2.01439E-04  3.26446E-04 -2.68866E-04  2.11297E-03 -4.20584E+00 -3.22241E-04  2.39969E-05  1.83603E-05  1.04187E-06  1.50000E+01
  2.05166E+01  1.98479E+01  2.01773E+01  3.48891E-01 -9.54482E-01 -1.18648E-02  4.95516E-01 -1.22661E-04  2.02284E-04  8.01554E-05  2.45448E-03 -2.86488E+00 -4.21741E-04  1.32095E-05  7.81996E-06  3.46498E-06  1.50000E+01
  2.05142E+01  1.98557E+01  2.01512E+01  3.59548E-01 -9.54455E-01 -1.04485E-02  5.02661E-01 -1.17416E-04  1.94377E-04  6.54392E-05  2.53737E-03 -2.83622E+00 -3.00234E-04  1.20129E-05  7.27523E-06  2.97211E-06  1.50000E+01
  2.03348E+01  1.97618E+01  2.00810E+01  2.54267E-01 -6.84217E-01 -9.55494E-03  2.28871E-01 -7.55341E-05  1.57941E-04  3.27255E-05  3.44994E-03 -2.26367E+00 -6.04124E-04  1.06807E-05  5.40482E-06  3.03156E-06  1.50000E+01
  2.03830E+01  1.97424E+01  2.02166E+01  2.17952E-01 -7.27398E-01 -1.71038E-02  3.61088E-01 -8.07236E-05  1.64964E-04  8.80912E-05  2.46858E-03 -2.34586E+00 -1.07882E-03  1.69032E-05  6.79540E-06  6.98234E-06  1.50000E+01
  2.04026E+01  1.97472E+01  2.02307E+01  2.22591E-01 -7.55912E-01 -1.69854E-02  4.25848E-01 -9.37281E-05  1.82304E-04  1.02331E-04  2.44077E-03 -2.42314E+00 -1.06675E-03  1.71896E-05  6.96320E-06  7.11746E-06  1.50000E+01
  2.03995E+01  1.97582E+01  2.02052E+01  2.38959E-01 -7.59626E-01 -1.65371E-02  3.89655E-01 -8.75213E-05  1.71370E-04  8.57616E-05  2.51799E-03 -2.44486E+00 -9.49427E-04  1.56417E-05  6.67378E-06  6.39465E-06  1.50000E+01
  2.01166E+01  1.96351E+01  2.01527E+01  7.44162E-02 -2.68029E-01 -1.36412E-02  1.43495E-01 -1.28915E-07  9.04316E-05  3.07595E-05  5.30168E-03 -8.42736E-01 -4.26002E-03  3.18831E-05  1.18669E-05  2.87907E-06  1.50000E+01
  2.00983E+01  1.96239E+01  2.01642E+01  5.19874E-02 -2.18529E-01 -1.11123E-02  1.47220E-01  8.18561E-06  8.55155E-05  2.95565E-05  4.93345E-03 -6.86363E-01 -5.52630E-03  3.59430E-05  1.24631E-05  2.66457E-06  1.50000E+01