 TITLE="3D TRIANGULAR SURFACE DATA"
VARIABLES="X","Y","Z","U","V","W","P", "Fex", "Fey", "Fez","Finx","Finy","Finz","WSSx","WSSy","WSSz","AMForce"
 ZONE T="unstruc"N=        1757 E=        3355 F=FEPOINT  ET=TRIANGLE
  2.03796E+01  2.03878E+01  2.00906E+01 -6.56745E-01  1.22869E-01  2.39917E-02 -8.96258E-01  5.63621E-05 -5.27946E-04  6.28446E-05 -2.91981E-03  5.59952E-01 -6.68811E-03  6.90907E-05 -1.43289E-06  7.15334E-07  1.50000E+01
  2.04023E+01  2.03872E+01  2.00906E+01 -6.58518E-01  1.40341E-01  1.85984E-02 -8.41598E-01  2.38117E-05 -2.49261E-04  3.18669E-05  1.01328E-03  2.83194E-01 -1.92449E-03  3.22473E-05 -9.71462E-07  5.97970E-07  1.50000E+01
  2.03978E+01  2.03851E+01  2.00707E+01 -6.59834E-01  1.48704E-01  1.49591E-02 -8.93246E-01  3.46532E-05 -3.76025E-04  3.72795E-05 -1.35935E-03  4.47073E-01 -9.97625E-04  4.83957E-05 -1.66963E-06  7.17613E-07  1.50000E+01
  2.03758E+01  2.03918E+01  2.01199E+01 -6.53709E-01  8.82057E-02  3.65381E-02 -8.74999E-01  5.45084E-05 -4.35822E-04  6.46070E-05 -3.42212E-03  3.51991E-01 -4.83689E-03  5.75679E-05 -1.83490E-07  6.31973E-07  1.50000E+01
  2.03980E+01  2.03900E+01  2.01103E+01 -6.57070E-01  1.23772E-01  2.49577E-02 -7.20548E-01  3.81614E-05 -3.52329E-04  5.33371E-05 -2.09067E-03  3.75881E-01 -5.65641E-03  4.74921E-05 -1.06822E-06  7.74756E-07  1.50000E+01
  2.04182E+01  2.03881E+01  2.01015E+01 -6.59219E-01  1.42582E-01  1.78185E-02 -8.15531E-01  3.01360E-05 -3.11296E-04  4.57615E-05 -5.84914E-05  3.62606E-01 -1.74348E-03  4.08291E-05 -1.20371E-06  1.08097E-06  1.50000E+01
  2.04182E+01  2.03852E+01  2.00794E+01 -6.60770E-01  1.52984E-01  1.31615E-02 -8.73562E-01  2.95476E-05 -3.19293E-04  3.68698E-05 -2.34981E-04  3.88027E-01 -2.32342E-03  4.14282E-05 -1.41506E-06  1.04545E-06  1.50000E+01
  2.03954E+01  2.03831E+01  2.00458E+01 -6.61048E-01  1.57005E-01  9.68569E-03 -9.16914E-01  3.76907E-05 -4.13992E-04  2.72351E-05 -1.35794E-03  5.09806E-01 -1.24022E-03  5.37454E-05 -2.03560E-06  5.74756E-07  1.50000E+01
  2.03754E+01  2.03850E+01  2.00614E+01 -6.58325E-01  1.38096E-01  1.59063E-02 -9.21866E-01  4.50095E-05 -4.67593E-04  3.91915E-05 -1.73192E-03  5.19584E-01 -4.10134E-03  5.96766E-05 -1.74757E-06  4.69715E-07  1.50000E+01
  2.03736E+01  2.03833E+01  2.00346E+01 -6.59422E-01  1.47888E-01  9.02788E-03 -9.33565E-01  4.10402E-05 -4.43659E-04  2.11573E-05 -1.55035E-03  5.19826E-01 -2.01250E-03  5.68780E-05 -1.96656E-06  2.60142E-07  1.50000E+01
  2.03960E+01  2.03940E+01  2.01348E+01 -6.54610E-01  9.83213E-02  3.46136E-02 -8.79534E-01  4.62319E-05 -3.90523E-04  6.86330E-05 -2.26775E-03  3.33908E-01 -5.78106E-03  5.16201E-05 -4.20289E-07  1.02654E-06  1.50000E+01
  2.04170E+01  2.03917E+01  2.01243E+01 -6.57580E-01  1.27441E-01  2.37962E-02 -8.15489E-01  3.69457E-05 -3.55666E-04  6.20359E-05 -1.62086E-03  3.79592E-01 -3.95789E-03  4.71706E-05 -1.09295E-06  1.13065E-06  1.50000E+01
  2.03316E+01  2.03881E+01  2.00910E+01 -6.49110E-01  3.40815E-02  3.93151E-02 -9.42890E-01  7.07477E-05 -4.81300E-04  4.42739E-05 -1.03857E-02  1.88391E-01 -3.80484E-03  5.90947E-05  1.75428E-06  2.48422E-07  1.50000E+01
  2.03312E+01  2.03859E+01  2.00637E+01 -6.52061E-01  6.62912E-02  2.61562E-02 -9.49553E-01  6.21514E-05 -4.70501E-04  3.21527E-05 -7.25997E-03  2.95598E-01 -3.34870E-03  5.93891E-05  6.36353E-07  1.23016E-08  1.50000E+01
  2.03096E+01  2.03861E+01  2.00775E+01 -6.43656E-01 -1.84235E-02  3.94671E-02 -9.44590E-01  8.34653E-05 -4.56122E-04  2.88913E-05 -1.66734E-02  1.16799E-02 -1.29641E-03  5.80539E-05  3.64760E-06 -6.84305E-08  1.50000E+01
  2.03542E+01  2.03898E+01  2.01048E+01 -6.52133E-01  6.94503E-02  3.77839E-02 -9.05134E-01  6.35643E-05 -4.91187E-04  5.92581E-05 -6.18468E-03  3.22862E-01 -6.45132E-03  6.22921E-05  4.77523E-07  6.29761E-07  1.50000E+01
  2.03317E+01  2.03907E+01  2.01181E+01 -6.44255E-01 -1.31018E-02  5.47453E-02 -9.76344E-01  8.15979E-05 -4.72354E-04  5.11701E-05 -1.47857E-02  2.38427E-02 -2.72136E-03  5.69250E-05  3.39231E-06  8.83043E-07  1.50000E+01
  2.03533E+01  2.03933E+01  2.01320E+01 -6.48089E-01  2.36287E-02  5.26833E-02 -9.10019E-01  6.99309E-05 -4.48453E-04  6.20505E-05 -9.62536E-03  1.40509E-01 -4.92283E-03  5.68027E-05  2.04115E-06  7.24056E-07  1.50000E+01
  2.03540E+01  2.03869E+01  2.00768E+01 -6.54785E-01  1.00468E-01  2.58323E-02 -9.30561E-01  5.65791E-05 -5.02923E-04  4.71257E-05 -3.96206E-03  4.33637E-01 -4.20712E-03  6.33253E-05 -6.17137E-07  3.15505E-07  1.50000E+01
  2.03526E+01  2.03848E+01  2.00493E+01 -6.56448E-01  1.18922E-01  1.60083E-02 -9.45353E-01  4.85936E-05 -4.65817E-04  2.88442E-05 -2.91321E-03  4.58864E-01 -2.99768E-03  5.90114E-05 -1.16236E-06  1.34611E-07  1.50000E+01
  2.04375E+01  2.03858E+01  2.00902E+01 -6.61518E-01  1.54041E-01  1.19637E-02 -8.53656E-01  3.28931E-05 -3.43862E-04  4.63236E-05 -6.63735E-04  4.24966E-01 -1.62464E-03  4.51751E-05 -1.39698E-06  1.64257E-06  1.50000E+01
  2.04372E+01  2.03832E+01  2.00667E+01 -6.63048E-01  1.61232E-01  8.54399E-03 -8.79260E-01  3.46728E-05 -3.61356E-04  3.63580E-05 -8.75256E-04  4.58944E-01 -1.37250E-03  4.80693E-05 -1.65385E-06  1.50962E-06  1.50000E+01
  2.04374E+01  2.03893E+01  2.01135E+01 -6.59842E-01  1.44148E-01  1.61364E-02 -8.32464E-01  3.45139E-05 -3.46906E-04  5.78257E-05 -6.41458E-04  4.11905E-01 -2.17897E-03  4.62091E-05 -1.24953E-06  1.71629E-06  1.50000E+01
  2.04166E+01  2.03831E+01  2.00561E+01 -6.62290E-01  1.60522E-01  9.37584E-03 -8.93112E-01  3.44611E-05 -3.75829E-04  3.11082E-05 -1.47012E-03  4.72343E-01 -1.19847E-03  4.91596E-05 -1.85171E-06  1.00460E-06  1.50000E+01
  2.04365E+01  2.03813E+01  2.00425E+01 -6.64327E-01  1.66227E-01  5.58361E-03 -8.87953E-01  3.72760E-05 -3.84581E-04  2.50528E-05 -1.43117E-03  4.97650E-01 -7.50824E-04  5.18795E-05 -1.91789E-06  1.27981E-06  1.50000E+01
  2.03518E+01  2.03836E+01  2.00224E+01 -6.57423E-01  1.29020E-01  7.39525E-03 -9.52310E-01  4.52853E-05 -4.49319E-04  1.28603E-05 -2.48755E-03  4.74121E-01 -1.57531E-03  5.74933E-05 -1.43922E-06 -1.33562E-08  1.50000E+01
  2.03943E+01  2.03820E+01  2.00201E+01 -6.61816E-01  1.62104E-01  4.56923E-03 -9.25192E-01  3.85561E-05 -4.23693E-04  1.24245E-05 -1.41449E-03  5.33286E-01 -6.86872E-04  5.56140E-05 -2.23739E-06  2.82086E-07  1.50000E+01
  2.03728E+01  2.03826E+01  2.00082E+01 -6.59976E-01  1.52392E-01  2.59636E-03 -9.43592E-01  4.00578E-05 -4.36163E-04  5.05955E-06 -1.56157E-03  5.24385E-01 -6.41527E-04  5.63292E-05 -2.07025E-06  4.39811E-08  1.50000E+01
  2.03316E+01  2.03935E+01  2.01447E+01 -6.36555E-01 -7.55555E-02  7.23197E-02 -9.35009E-01  9.64999E-05 -4.49323E-04  5.03232E-05 -2.14026E-02 -1.82141E-01  6.04030E-04  5.54600E-05  5.46912E-06  4.74832E-07  1.50000E+01
  2.03529E+01  2.03969E+01  2.01581E+01 -6.42080E-01 -3.39354E-02  6.96049E-02 -9.12158E-01  8.52168E-05 -4.28574E-04  6.30865E-05 -1.53087E-02 -4.73191E-02 -2.69660E-03  5.71059E-05  4.16021E-06  1.06605E-06  1.50000E+01
  2.07658E+01  2.04428E+01  1.97095E+01 -6.28567E-01  1.88887E-01  8.54906E-02 -5.74777E-01  7.77224E-05 -2.49067E-04 -1.29636E-04 -1.87500E-03  6.01654E-01  3.19925E-03  5.08304E-05  1.18077E-05 -1.45663E-05  1.50000E+01
  2.07455E+01  2.04356E+01  1.97218E+01 -6.33613E-01  1.89887E-01  7.70587E-02 -5.95827E-01  7.50610E-05 -2.76412E-04 -1.33986E-04 -1.60800E-03  6.03371E-01  2.82333E-03  5.09835E-05  1.03908E-05 -1.44969E-05  1.50000E+01
  2.07662E+01  2.04325E+01  1.97338E+01 -6.32626E-01  2.07565E-01  8.11345E-02 -5.13196E-01  7.34077E-05 -2.43269E-04 -1.20312E-04 -1.59418E-03  6.59551E-01  2.89705E-03  5.02789E-05  1.06409E-05 -1.46527E-05  1.50000E+01
  2.07458E+01  2.04258E+01  1.97463E+01 -6.37217E-01  2.06897E-01  7.26759E-02 -5.84594E-01  7.11265E-05 -2.69559E-04 -1.23943E-04 -1.40360E-03  6.56240E-01  2.56363E-03  5.13806E-05  9.57386E-06 -1.50643E-05  1.50000E+01
  2.07664E+01  2.04227E+01  1.97583E+01 -6.36016E-01  2.23630E-01  7.58288E-02 -4.84185E-01  6.96014E-05 -2.33770E-04 -1.09346E-04 -1.36978E-03  7.09151E-01  2.54458E-03  5.09686E-05  9.72726E-06 -1.50280E-05  1.50000E+01
  2.08261E+01  2.04681E+01  1.96739E+01 -6.09027E-01  1.70351E-01  1.05571E-01 -3.03549E-01  6.37683E-05 -6.01924E-05 -5.42007E-05 -2.63936E-03  5.45556E-01  3.66562E-03  5.11311E-05  1.61615E-05 -1.47749E-05  1.50000E+01
  2.08061E+01  2.04591E+01  1.96855E+01 -6.16388E-01  1.79328E-01  9.99384E-02 -4.04082E-01  7.46929E-05 -1.55754E-04 -9.85584E-05 -2.37994E-03  5.73364E-01  3.62468E-03  4.99931E-05  1.45565E-05 -1.46764E-05  1.50000E+01
  2.08267E+01  2.04561E+01  1.96978E+01 -6.15282E-01  1.95688E-01  1.02715E-01 -2.59532E-01  6.40739E-05 -6.42819E-05 -5.45078E-05 -2.24908E-03  6.24742E-01  3.33980E-03  5.25025E-05  1.53858E-05 -1.52747E-05  1.50000E+01
  2.04370E+01  2.03934E+01  2.01371E+01 -6.57939E-01  1.30638E-01  2.13558E-02 -8.58951E-01  3.80735E-05 -3.62901E-04  7.12216E-05 -1.10556E-03  3.96901E-01 -3.75995E-03  4.89215E-05 -1.04271E-06  1.82886E-06  1.50000E+01
  2.08273E+01  2.04446E+01  1.97219E+01 -6.20411E-01  2.17550E-01  9.83905E-02 -2.51971E-01  6.65863E-05 -9.10799E-05 -6.45514E-05 -1.90191E-03  6.92936E-01  2.97695E-03  5.32919E-05  1.42675E-05 -1.54007E-05  1.50000E+01
  2.08474E+01  2.04531E+01  1.97102E+01 -6.13974E-01  2.10956E-01  1.04614E-01 -8.25064E-02  6.02050E-05 -2.85605E-05 -3.71096E-05 -2.11885E-03  6.72814E-01  3.09994E-03  5.35193E-05  1.56484E-05 -1.53281E-05  1.50000E+01
  2.04570E+01  2.03798E+01  2.00292E+01 -6.65926E-01  1.68978E-01  3.00494E-03 -8.76342E-01  3.87848E-05 -3.84762E-04  1.77274E-05 -1.44971E-03  5.08009E-01 -4.09899E-04  5.28706E-05 -1.84469E-06  1.23645E-06  1.50000E+01
  2.04361E+01  2.03802E+01  2.00176E+01 -6.65076E-01  1.69047E-01  2.73426E-03 -8.94187E-01  3.88925E-05 -3.97419E-04  1.08715E-05 -1.55556E-03  5.18884E-01 -2.89804E-04  5.43540E-05 -2.09455E-06  6.01910E-07  1.50000E+01
  2.03744E+01  2.03959E+01  2.01460E+01 -6.50257E-01  4.76466E-02  4.99810E-02 -8.96104E-01  6.08948E-05 -4.19354E-04  7.05563E-05 -6.04720E-03  2.02485E-01 -5.57123E-03  5.51013E-05  1.18801E-06  1.00049E-06  1.50000E+01
  2.03740E+01  2.04001E+01  2.01713E+01 -6.45477E-01 -2.84355E-03  6.56274E-02 -9.08059E-01  7.55909E-05 -4.14113E-04  7.49067E-05 -1.08035E-02  4.76756E-02 -5.21687E-03  5.69882E-05  3.16231E-06  2.11857E-06  1.50000E+01
  2.03952E+01  2.03985E+01  2.01596E+01 -6.51605E-01  6.47512E-02  4.63318E-02 -8.94321E-01  5.80557E-05 -4.00309E-04  7.94209E-05 -4.05537E-03  2.41315E-01 -6.72075E-03  5.68216E-05  8.47234E-07  2.32424E-06  1.50000E+01
  2.03513E+01  2.03833E+01  1.99960E+01 -6.57745E-01  1.31480E-01 -6.78119E-04 -9.56190E-01  4.41393E-05 -4.38475E-04 -2.16327E-06 -2.40048E-03  4.72219E-01 -3.49034E-05  5.65611E-05 -1.48173E-06 -6.70004E-08  1.50000E+01
  2.03938E+01  2.03817E+01  1.99943E+01 -6.62029E-01  1.63345E-01 -3.83640E-04 -9.28680E-01  3.87820E-05 -4.22751E-04 -3.42928E-06 -1.45543E-03  5.36400E-01  1.52144E-04  5.58111E-05 -2.27253E-06 -1.21800E-07  1.50000E+01
  2.03724E+01  2.03828E+01  1.99822E+01 -6.59918E-01  1.51365E-01 -3.71553E-03 -9.42642E-01  3.98979E-05 -4.27934E-04 -1.04133E-05 -1.53732E-03  5.14997E-01  7.08320E-04  5.55792E-05 -2.01016E-06 -1.70364E-07  1.50000E+01
  2.07873E+01  2.04107E+01  1.97953E+01 -6.37176E-01  2.51380E-01  7.06531E-02 -3.43637E-01  6.33876E-05 -1.85545E-04 -7.91469E-05 -1.10615E-03  7.95171E-01  1.94706E-03  5.03209E-05  7.67509E-06 -1.21377E-05  1.50000E+01
  2.08077E+01  2.04168E+01  1.97828E+01 -6.32797E-01  2.52477E-01  7.84024E-02 -2.79732E-01  6.74626E-05 -1.66040E-04 -7.88237E-05 -1.19968E-03  7.99995E-01  2.05148E-03  5.26609E-05  9.44172E-06 -1.30617E-05  1.50000E+01
  2.07871E+01  2.04197E+01  1.97705E+01 -6.34532E-01  2.38809E-01  7.76879E-02 -3.61010E-01  6.69836E-05 -1.95068E-04 -9.19508E-05 -1.29710E-03  7.56867E-01  2.34961E-03  5.05201E-05  9.38754E-06 -1.37949E-05  1.50000E+01
  2.04576E+01  2.03868E+01  2.01019E+01 -6.62009E-01  1.54175E-01  1.02651E-02 -8.53812E-01  3.54338E-05 -3.57382E-04  5.51372E-05 -8.77296E-04  4.48154E-01 -1.53813E-03  4.76475E-05 -1.26728E-06  2.38050E-06  1.50000E+01
  2.01065E+01  2.02192E+01  2.01913E+01 -4.87878E-02 -1.12520E+00 -9.67519E-04 -9.09730E-01  2.77131E-04 -1.30850E-04 -1.42779E-04  4.58928E-03 -3.53427E+00 -6.32593E-04  4.45851E-05  5.53581E-05  1.68449E-06  1.50000E+01
  2.00970E+01  2.01981E+01  2.02018E+01 -3.66854E-02 -1.13825E+00 -3.86527E-04 -1.12300E+00  3.82269E-04 -1.94291E-04 -2.22761E-04  2.86369E-03 -3.57381E+00  4.87184E-04  4.98909E-05  6.23780E-05  2.11100E-06  1.50000E+01
  2.01145E+01  2.02095E+01  2.02147E+01 -4.30326E-02 -1.12821E+00 -5.16393E-04 -6.23196E-01  3.26917E-04 -1.46521E-04 -1.84569E-04  3.67541E-03 -3.55205E+00  2.16396E-04  5.09166E-05  6.28244E-05  4.27812E-06  1.50000E+01
  2.08483E+01  2.04308E+01  1.97585E+01 -6.22856E-01  2.49463E-01  9.31849E-02 -9.70903E-02  6.63441E-05 -9.93122E-05 -6.18416E-05 -1.47439E-03  7.92772E-01  2.32961E-03  5.29420E-05  1.23587E-05 -1.36966E-05  1.50000E+01
  2.08685E+01  2.04387E+01  1.97468E+01 -6.17173E-01  2.45140E-01  1.00008E-01 -1.32177E-01  3.43792E-05 -4.71292E-05 -3.17612E-05  6.44964E-03  3.99113E-01  8.61947E-03  2.70493E-05  6.89103E-06 -7.06459E-06  1.50000E+01
  2.08479E+01  2.04416E+01  1.97343E+01 -6.18868E-01  2.31827E-01  9.95691E-02 -8.64753E-02  6.54968E-05 -7.28866E-05 -5.53294E-05 -1.77920E-03  7.37941E-01  2.73299E-03  5.39939E-05  1.42505E-05 -1.48885E-05  1.50000E+01
  2.07868E+01  2.04294E+01  1.97459E+01 -6.31348E-01  2.23777E-01  8.38760E-02 -5.53266E-01  7.16051E-05 -2.13554E-04 -1.07717E-04 -1.52933E-03  7.10662E-01  2.75472E-03  4.99781E-05  1.08753E-05 -1.47666E-05  1.50000E+01
  2.08074E+01  2.04264E+01  1.97582E+01 -6.29805E-01  2.38488E-01  8.54173E-02 -3.32306E-01  7.18720E-05 -1.81526E-04 -9.36368E-05 -1.43107E-03  7.57023E-01  2.48116E-03  5.20615E-05  1.09967E-05 -1.42309E-05  1.50000E+01
  2.03510E+01  2.03839E+01  1.99700E+01 -6.57395E-01  1.26319E-01 -8.78208E-03 -9.53361E-01  4.42937E-05 -4.28411E-04 -1.61977E-05 -2.58175E-03  4.50574E-01  1.60652E-03  5.53633E-05 -1.29443E-06 -1.22862E-07  1.50000E+01
  2.03305E+01  2.03844E+01  2.00366E+01 -6.53825E-01  8.56866E-02  1.47048E-02 -9.56744E-01  5.63218E-05 -4.56724E-04  1.85228E-05 -5.67118E-03  3.50666E-01 -2.26474E-03  5.84043E-05 -1.86713E-08 -8.71162E-08  1.50000E+01
  2.03301E+01  2.03838E+01  2.00098E+01 -6.54695E-01  9.42569E-02  4.27644E-03 -9.65179E-01  5.33960E-05 -4.45341E-04  4.97385E-06 -5.11166E-03  3.70700E-01 -8.63102E-04  5.74606E-05 -2.89576E-07 -6.57372E-08  1.50000E+01
  2.08055E+01  2.04710E+01  1.96616E+01 -6.09875E-01  1.53087E-01  1.02168E-01 -4.02569E-01  7.56499E-05 -1.47887E-04 -9.70954E-05 -2.76317E-03  4.91288E-01  3.92268E-03  4.96171E-05  1.53157E-05 -1.39108E-05  1.50000E+01
  2.07460E+01  2.04167E+01  1.97709E+01 -6.40256E-01  2.21562E-01  6.74711E-02 -4.97670E-01  6.75180E-05 -2.65774E-04 -1.12875E-04 -1.23335E-03  7.01254E-01  2.26224E-03  5.10858E-05  8.07857E-06 -1.39194E-05  1.50000E+01
  2.07666E+01  2.04136E+01  1.97830E+01 -6.38851E-01  2.37263E-01  6.96761E-02 -3.78892E-01  6.57947E-05 -2.19013E-04 -9.39653E-05 -1.18197E-03  7.50738E-01  2.16681E-03  5.11258E-05  8.00268E-06 -1.32563E-05  1.50000E+01
  2.03092E+01  2.03847E+01  2.00505E+01 -6.47354E-01  1.40152E-02  2.49323E-02 -9.57493E-01  7.50834E-05 -4.51449E-04  2.01239E-05 -1.31937E-02  1.21196E-01 -1.69319E-03  5.86204E-05  2.53234E-06 -6.48006E-08  1.50000E+01
  2.02875E+01  2.03829E+01  2.00375E+01 -6.38400E-01 -6.19277E-02  2.16734E-02 -9.56922E-01  9.57544E-05 -4.33471E-04  1.03093E-05 -2.22373E-02 -1.27290E-01  3.08721E-04  6.00361E-05  5.50446E-06 -6.97621E-08  1.50000E+01
  2.02879E+01  2.03838E+01  2.00643E+01 -6.33706E-01 -9.21570E-02  3.75602E-02 -9.49013E-01  1.03655E-04 -4.35145E-04  1.61088E-05 -2.54670E-02 -2.31288E-01  1.60981E-03  5.95329E-05  6.59616E-06 -2.32324E-08  1.50000E+01
  2.04575E+01  2.03836E+01  2.00780E+01 -6.63606E-01  1.60990E-01  7.44009E-03 -8.60255E-01  3.62570E-05 -3.62708E-04  4.34762E-05 -9.96931E-04  4.66561E-01 -1.10570E-03  4.88478E-05 -1.45705E-06  2.22665E-06  1.50000E+01
  2.04573E+01  2.03813E+01  2.00538E+01 -6.64954E-01  1.65875E-01  5.07895E-03 -8.67736E-01  3.80919E-05 -3.74258E-04  3.14970E-05 -1.20807E-03  4.89317E-01 -8.05128E-04  5.11851E-05 -1.66856E-06  2.00660E-06  1.50000E+01
  2.04776E+01  2.03787E+01  2.00163E+01 -6.67047E-01  1.70896E-01  1.37670E-03 -8.55501E-01  3.85706E-05 -3.79608E-04  9.83974E-06 -1.41817E-03  5.14456E-01 -1.96388E-04  5.17657E-05 -1.69173E-06  8.37674E-07  1.50000E+01
  2.04568E+01  2.03792E+01  2.00044E+01 -6.66381E-01  1.70308E-01  1.02664E-03 -8.78338E-01  3.85484E-05 -3.90718E-04  2.58924E-06 -1.51257E-03  5.18293E-01 -4.81009E-05  5.32668E-05 -1.91391E-06  1.17633E-07  1.50000E+01
  2.08071E+01  2.04367E+01  1.97338E+01 -6.26176E-01  2.21793E-01  9.14408E-02 -3.13743E-01  7.34017E-05 -1.73739E-04 -9.73637E-05 -1.72017E-03  7.05496E-01  2.88549E-03  5.21571E-05  1.26031E-05 -1.50631E-05  1.50000E+01
  2.08067E+01  2.04477E+01  1.97096E+01 -6.21759E-01  2.02153E-01  9.63263E-02 -5.12866E-01  7.45426E-05 -1.64234E-04 -9.88399E-05 -2.03272E-03  6.44609E-01  3.27776E-03  5.16507E-05  1.39569E-05 -1.54660E-05  1.50000E+01
  2.07251E+01  2.04291E+01  1.97343E+01 -6.38122E-01  1.88841E-01  6.81629E-02 -6.95048E-01  7.21281E-05 -3.11626E-04 -1.40232E-04 -1.40605E-03  5.98585E-01  2.38069E-03  5.08160E-05  9.03046E-06 -1.44902E-05  1.50000E+01
  2.03102E+01  2.03900E+01  2.01313E+01 -6.27476E-01 -1.31492E-01  7.33757E-02 -8.70740E-01  1.10406E-04 -4.38144E-04  3.40756E-05 -2.87722E-02 -3.68396E-01  4.82876E-03  5.52260E-05  7.50075E-06  4.71080E-07  1.50000E+01
  2.02894E+01  2.03868E+01  2.01447E+01 -5.93264E-01 -2.85592E-01  8.90512E-02 -9.15357E-01  1.53672E-04 -4.18757E-04  9.15327E-06 -4.21298E-02 -8.87191E-01  1.55956E-02  5.57114E-05  1.34516E-05 -7.54385E-07  1.50000E+01
  2.03105E+01  2.03918E+01  2.01577E+01 -6.11819E-01 -2.12629E-01  9.16512E-02 -9.60388E-01  1.35631E-04 -4.38625E-04  2.72449E-05 -3.68560E-02 -6.34358E-01  1.13345E-02  5.55287E-05  1.05365E-05 -4.91682E-07  1.50000E+01
  2.08277E+01  2.04337E+01  1.97461E+01 -6.24608E-01  2.36189E-01  9.27460E-02 -1.59526E-01  6.86121E-05 -1.20524E-04 -7.27694E-05 -1.59361E-03  7.50804E-01  2.58100E-03  5.30881E-05  1.26034E-05 -1.45069E-05  1.50000E+01
  2.07451E+01  2.04459E+01  1.96975E+01 -6.29334E-01  1.70402E-01  8.05600E-02 -6.70761E-01  8.12266E-05 -2.94983E-04 -1.49037E-04 -1.86345E-03  5.42640E-01  3.04094E-03  5.10973E-05  1.14844E-05 -1.45589E-05  1.50000E+01
  2.07248E+01  2.04389E+01  1.97099E+01 -6.34309E-01  1.71099E-01  7.16204E-02 -6.70909E-01  7.48399E-05 -3.10997E-04 -1.47566E-04 -1.58505E-03  5.43105E-01  2.53240E-03  5.01549E-05  9.84299E-06 -1.42293E-05  1.50000E+01
  2.03950E+01  2.04033E+01  2.01843E+01 -6.47618E-01  2.10236E-02  6.06407E-02 -9.07108E-01  6.79620E-05 -4.05873E-04  8.58761E-05 -7.69181E-03  1.16384E-01 -7.17804E-03  5.64364E-05  2.42476E-06  3.02563E-06  1.50000E+01
  2.04160E+01  2.04011E+01  2.01726E+01 -6.52452E-01  7.77348E-02  4.19825E-02 -8.88927E-01  5.51051E-05 -3.90132E-04  8.83466E-05 -2.86794E-03  2.72774E-01 -7.20583E-03  5.70386E-05  6.29509E-07  3.60105E-06  1.50000E+01
  2.03739E+01  2.04044E+01  2.01965E+01 -6.38018E-01 -6.70048E-02  8.39137E-02 -9.26096E-01  8.99486E-05 -4.19038E-04  7.46379E-05 -1.81140E-02 -1.48032E-01 -2.18494E-03  5.53142E-05  5.36827E-06  2.34698E-06  1.50000E+01
  2.03935E+01  2.03824E+01  1.99687E+01 -6.61634E-01  1.60485E-01 -5.41969E-03 -9.23961E-01  3.83386E-05 -4.17270E-04 -1.89172E-05 -1.33508E-03  5.26180E-01  1.18334E-03  5.47862E-05 -2.14512E-06 -5.03349E-07  1.50000E+01
  2.07860E+01  2.04507E+01  1.96974E+01 -6.22863E-01  1.85456E-01  9.31923E-02 -4.57385E-01  7.76562E-05 -2.09048E-04 -1.18345E-04 -2.12155E-03  5.92001E-01  3.47719E-03  4.99412E-05  1.31489E-05 -1.46664E-05  1.50000E+01
  2.07855E+01  2.04620E+01  1.96733E+01 -6.17252E-01  1.61745E-01  9.61104E-02 -4.64591E-01  7.94468E-05 -1.96707E-04 -1.16566E-04 -2.45574E-03  5.17826E-01  3.77266E-03  4.98053E-05  1.39197E-05 -1.38798E-05  1.50000E+01
  2.07654E+01  2.04537E+01  1.96853E+01 -6.23692E-01  1.67422E-01  8.88266E-02 -5.62094E-01  8.18614E-05 -2.46673E-04 -1.34005E-04 -2.14827E-03  5.34722E-01  3.47836E-03  5.08615E-05  1.27279E-05 -1.41579E-05  1.50000E+01
  2.07044E+01  2.04324E+01  1.97224E+01 -6.38738E-01  1.70023E-01  6.23323E-02 -7.33589E-01  7.10710E-05 -3.46267E-04 -1.54009E-04 -1.39655E-03  5.38091E-01  2.02110E-03  5.04324E-05  8.61309E-06 -1.43642E-05  1.50000E+01
  2.04782E+01  2.03880E+01  2.01140E+01 -6.62196E-01  1.54143E-01  7.99147E-03 -8.34348E-01  3.74321E-05 -3.50024E-04  6.09018E-05 -9.86398E-04  4.57983E-01 -1.45620E-03  4.87831E-05 -1.03878E-06  3.16527E-06  1.50000E+01
  2.04576E+01  2.03907E+01  2.01257E+01 -6.60197E-01  1.45039E-01  1.37468E-02 -8.29259E-01  3.67602E-05 -3.53331E-04  6.59037E-05 -8.54759E-04  4.31890E-01 -2.29857E-03  4.83907E-05 -1.13416E-06  2.35940E-06  1.50000E+01
  2.03099E+01  2.03880E+01  2.01045E+01 -6.37469E-01 -6.66379E-02  5.56753E-02 -9.39317E-01  9.43382E-05 -4.52189E-04  3.42799E-05 -2.19350E-02 -1.52292E-01  7.26285E-04  5.60547E-05  5.22421E-06  2.35038E-07  1.50000E+01
  2.02883E+01  2.03848E+01  2.00912E+01 -6.25653E-01 -1.39496E-01  5.44385E-02 -9.32205E-01  1.14673E-04 -4.31365E-04  1.87487E-05 -3.03606E-02 -3.93985E-01  4.47087E-03  5.77810E-05  8.15163E-06 -1.12133E-07  1.50000E+01
  2.01053E+01  2.01878E+01  2.02248E+01 -3.25971E-02 -1.14117E+00  0.00000E+00 -4.22043E-01  2.06192E-04 -1.01021E-04 -1.21656E-04  5.01439E-02  2.99049E+01 -3.07167E+01  2.76860E-05  3.31177E-05  3.22831E-06  1.50000E+01
  2.08673E+01  2.04621E+01  1.96988E+01 -6.06772E-01  2.01894E-01  1.10007E-01 -6.79355E-02  2.91912E-05 -5.38760E-06 -1.48779E-05  7.07647E-03  3.28845E-01  8.98158E-03  2.68589E-05  8.42341E-06 -7.74248E-06  1.50000E+01
  2.08467E+01  2.04651E+01  1.96863E+01 -6.07981E-01  1.86581E-01  1.08141E-01 -5.85415E-02  5.67996E-05  2.82468E-06 -2.34633E-05 -2.50729E-03  5.96595E-01  3.42802E-03  5.40610E-05  1.72272E-05 -1.57640E-05  1.50000E+01
  2.07244E+01  2.04491E+01  1.96856E+01 -6.29829E-01  1.51107E-01  7.42993E-02 -6.95394E-01  7.88980E-05 -3.12331E-04 -1.54547E-04 -1.81194E-03  4.80508E-01  2.66011E-03  4.94379E-05  1.04118E-05 -1.35111E-05  1.50000E+01
  2.07041E+01  2.04422E+01  1.96981E+01 -6.34736E-01  1.51904E-01  6.49049E-02 -7.15296E-01  7.40829E-05 -3.34766E-04 -1.56682E-04 -1.56265E-03  4.81235E-01  2.10226E-03  5.06325E-05  9.27948E-06 -1.38778E-05  1.50000E+01
  2.03298E+01  2.03839E+01  1.99835E+01 -6.54723E-01  9.26391E-02 -5.80269E-03 -9.68080E-01  5.29335E-05 -4.34779E-04 -7.99287E-06 -5.25542E-03  3.59880E-01  7.42085E-04  5.65232E-05 -2.29085E-07 -2.20314E-08  1.50000E+01
  2.04576E+01  2.03953E+01  2.01497E+01 -6.58126E-01  1.32891E-01  1.81774E-02 -8.53961E-01  4.11266E-05 -3.64849E-04  8.00418E-05 -9.71428E-04  4.08027E-01 -3.53387E-03  5.21519E-05 -7.86817E-07  3.33792E-06  1.50000E+01
  2.03317E+01  2.03962E+01  2.01707E+01 -6.24314E-01 -1.53042E-01  9.12160E-02 -9.03219E-01  1.18577E-04 -4.30450E-04  4.44704E-05 -3.01673E-02 -4.29943E-01  6.40698E-03  5.62785E-05  8.41615E-06  1.91472E-07  1.50000E+01
  2.03529E+01  2.04004E+01  2.01837E+01 -6.32571E-01 -1.05287E-01  8.84491E-02 -9.23410E-01  1.06249E-04 -4.23435E-04  6.11498E-05 -2.36536E-02 -2.70606E-01  1.78371E-03  5.91858E-05  7.17782E-06  1.96808E-06  1.50000E+01
  2.01164E+01  2.02398E+01  2.01803E+01 -6.44806E-02 -1.10976E+00 -1.13325E-03 -9.56646E-01  2.79488E-04 -1.44620E-04 -1.32392E-04  6.51337E-03 -3.49696E+00 -1.47426E-03  4.13492E-05  4.81854E-05  4.00617E-06  1.50000E+01
  2.00995E+01  2.02279E+01  2.01672E+01 -5.55203E-02 -1.12253E+00 -1.06390E-03 -1.06984E+00  2.54904E-04 -1.17919E-04 -1.11174E-04  4.90177E-03 -3.51411E+00 -8.57934E-04  4.44902E-05  5.35307E-05  2.06753E-06  1.50000E+01
  2.07848E+01  2.04737E+01  1.96494E+01 -6.10496E-01  1.34719E-01  9.77706E-02 -4.17516E-01  8.03872E-05 -1.79231E-04 -1.10154E-04 -2.82085E-03  4.33130E-01  4.02362E-03  4.93242E-05  1.44542E-05 -1.28590E-05  1.50000E+01
  2.02662E+01  2.03802E+01  2.00246E+01 -6.21364E-01 -1.64481E-01  1.59607E-02 -9.61481E-01  1.23579E-04 -4.11972E-04  3.23962E-06 -3.26674E-02 -4.67102E-01  1.60445E-03  6.13403E-05  9.61289E-06 -7.29061E-08  1.50000E+01
  2.02665E+01  2.03805E+01  2.00513E+01 -6.15901E-01 -1.89579E-01  3.29836E-02 -9.49187E-01  1.31218E-04 -4.16210E-04  5.91571E-06 -3.48804E-02 -5.55758E-01  3.97946E-03  6.16385E-05  1.07022E-05 -5.20568E-09  1.50000E+01
  2.04781E+01  2.03844E+01  2.00898E+01 -6.63873E-01  1.60747E-01  5.80083E-03 -8.44050E-01  3.77171E-05 -3.61142E-04  5.04467E-05 -1.06145E-03  4.73948E-01 -1.02146E-03  4.94307E-05 -1.21404E-06  3.01622E-06  1.50000E+01
  2.04780E+01  2.03816E+01  2.00655E+01 -6.65289E-01  1.65667E-01  4.05436E-03 -8.50252E-01  3.94861E-05 -3.67248E-04  3.80291E-05 -1.18093E-03  4.89530E-01 -7.26980E-04  5.15135E-05 -1.43410E-06  2.71499E-06  1.50000E+01
  2.02902E+01  2.03871E+01  2.01712E+01 -5.64677E-01 -3.81668E-01  1.03845E-01 -9.23820E-01  1.89022E-04 -4.30283E-04 -5.47013E-06 -4.50819E-02 -1.21202E+00  2.29357E-02  5.64861E-05  1.76283E-05 -1.46267E-06  1.50000E+01
  2.02712E+01  2.03791E+01  2.01848E+01 -4.90985E-01 -5.61933E-01  1.01884E-01 -9.66261E-01  2.49572E-04 -4.07457E-04 -4.69773E-05 -3.44786E-02 -1.83375E+00  2.56286E-02  5.85288E-05  2.69731E-05 -1.86694E-06  1.50000E+01
  2.02915E+01  2.03865E+01  2.01975E+01 -5.25126E-01 -4.88367E-01  1.13724E-01 -9.08071E-01  2.22638E-04 -4.14799E-04 -2.76220E-05 -4.20987E-02 -1.57479E+00  2.86479E-02  5.68454E-05  2.26972E-05 -1.90190E-06  1.50000E+01
  2.06836E+01  2.04359E+01  1.97107E+01 -6.39080E-01  1.51267E-01  5.53218E-02 -7.40972E-01  6.86478E-05 -3.54409E-04 -1.56938E-04 -1.41332E-03  4.77737E-01  1.61810E-03  5.11859E-05  7.91341E-06 -1.36137E-05  1.50000E+01
  2.03088E+01  2.03838E+01  2.00237E+01 -6.49366E-01  3.20105E-02  1.17098E-02 -9.62914E-01  6.99638E-05 -4.44425E-04  9.63875E-06 -1.13880E-02  1.79070E-01 -1.10249E-03  5.84243E-05  1.90069E-06 -1.01604E-07  1.50000E+01
  2.03085E+01  2.03836E+01  1.99972E+01 -6.50043E-01  3.66473E-02 -8.11575E-04 -9.65034E-01  6.78995E-05 -4.35068E-04 -1.14849E-06 -1.10106E-02  1.91784E-01 -9.39670E-05  5.77852E-05  1.72381E-06 -2.84537E-08  1.50000E+01
  2.04778E+01  2.03797E+01  2.00410E+01 -6.66377E-01  1.69039E-01  2.62320E-03 -8.52722E-01  4.00055E-05 -3.74030E-04  2.46565E-05 -1.31059E-03  5.03932E-01 -4.75071E-04  5.27165E-05 -1.60950E-06  2.15528E-06  1.50000E+01
  2.07648E+01  2.04649E+01  1.96613E+01 -6.17855E-01  1.42996E-01  9.10881E-02 -5.63208E-01  8.40318E-05 -2.32609E-04 -1.31080E-04 -2.45892E-03  4.58076E-01  3.70418E-03  5.05580E-05  1.33123E-05 -1.31756E-05  1.50000E+01
  2.07447E+01  2.04567E+01  1.96733E+01 -6.24246E-01  1.48314E-01  8.31521E-02 -6.26589E-01  8.42857E-05 -2.85769E-04 -1.49580E-04 -2.10959E-03  4.73457E-01  3.23767E-03  5.08347E-05  1.20138E-05 -1.35124E-05  1.50000E+01
  2.02888E+01  2.03859E+01  2.01180E+01 -6.12831E-01 -2.04185E-01  7.19590E-02 -9.05540E-01  1.28130E-04 -4.15935E-04  1.63668E-05 -3.64008E-02 -6.13306E-01  9.16782E-03  5.51880E-05  1.01812E-05 -4.31843E-07  1.50000E+01
  2.02676E+01  2.03813E+01  2.01049E+01 -5.90100E-01 -2.94054E-01  6.72406E-02 -9.47879E-01  1.58809E-04 -4.11569E-04  1.17170E-06 -4.17426E-02 -9.18802E-01  1.22912E-02  6.01200E-05  1.48039E-05 -9.98984E-07  1.50000E+01
  2.05189E+01  2.03773E+01  1.99904E+01 -6.67909E-01  1.76407E-01  5.48286E-04 -8.07398E-01  3.94070E-05 -3.64597E-04 -5.88132E-06 -1.32702E-03  5.35265E-01  2.02897E-05  5.03196E-05 -1.40240E-06 -6.02738E-07  1.50000E+01
  2.04981E+01  2.03782E+01  1.99783E+01 -6.67639E-01  1.72711E-01  9.65089E-05 -8.32473E-01  3.95464E-05 -3.74671E-04 -1.34332E-05 -1.39926E-03  5.25699E-01  1.40651E-04  5.15804E-05 -1.52287E-06 -1.34286E-06  1.50000E+01
  2.04983E+01  2.03778E+01  2.00034E+01 -6.67701E-01  1.73187E-01  5.74255E-04 -8.32630E-01  3.87478E-05 -3.72699E-04  1.89552E-06 -1.37591E-03  5.23205E-01 -6.87026E-05  5.06812E-05 -1.54034E-06  1.62801E-07  1.50000E+01
  2.07642E+01  2.04764E+01  1.96373E+01 -6.10886E-01  1.15428E-01  9.22526E-02 -5.30798E-01  8.54133E-05 -2.16703E-04 -1.25535E-04 -2.80405E-03  3.71458E-01  3.91689E-03  5.01887E-05  1.37631E-05 -1.20342E-05  1.50000E+01
  2.04782E+01  2.03975E+01  2.01624E+01 -6.58086E-01  1.34451E-01  1.44551E-02 -8.50257E-01  4.36816E-05 -3.64124E-04  8.80870E-05 -9.71205E-04  4.13594E-01 -3.16724E-03  5.47048E-05 -4.08261E-07  4.97204E-06  1.50000E+01
  2.04782E+01  2.03924E+01  2.01382E+01 -6.60270E-01  1.45552E-01  1.07943E-02 -8.24263E-01  3.84422E-05 -3.46277E-04  7.18843E-05 -9.52868E-04  4.39041E-01 -2.12422E-03  4.93437E-05 -9.00921E-07  3.13317E-06  1.50000E+01
  2.02670E+01  2.03809E+01  2.00781E+01 -6.05907E-01 -2.32912E-01  5.02456E-02 -9.56661E-01  1.43237E-04 -4.15854E-04  6.02381E-06 -3.81657E-02 -7.07208E-01  7.48181E-03  6.15866E-05  1.25235E-05  1.01204E-07  1.50000E+01
  2.03120E+01  2.03935E+01  2.02101E+01 -5.53106E-01 -4.18955E-01  1.21916E-01 -9.67930E-01  1.97909E-04 -4.09739E-04 -7.33341E-06 -4.57256E-02 -1.32710E+00  2.87335E-02  5.70194E-05  1.95384E-05 -2.13543E-06  1.50000E+01
  2.03326E+01  2.03999E+01  2.02225E+01 -5.75286E-01 -3.55231E-01  1.26319E-01 -9.58122E-01  1.79255E-04 -4.18313E-04  1.34651E-05 -4.57065E-02 -1.10023E+00  2.61836E-02  5.93581E-05  1.74081E-05 -7.62029E-07  1.50000E+01
  2.03320E+01  2.03985E+01  2.01966E+01 -6.04905E-01 -2.46583E-01  1.10085E-01 -9.27191E-01  1.47162E-04 -4.24288E-04  3.29246E-05 -3.93065E-02 -7.35953E-01  1.54210E-02  5.88391E-05  1.25606E-05 -4.45505E-07  1.50000E+01
  2.00828E+01  2.02157E+01  2.01541E+01 -4.69714E-02 -1.13492E+00 -9.62449E-04 -1.14509E+00  2.26710E-04 -9.38356E-05 -8.96228E-05  3.54546E-03 -3.51837E+00 -4.62186E-04  4.40942E-05  5.35730E-05  1.57098E-06  1.50000E+01
  2.00725E+01  2.01957E+01  2.01653E+01 -3.44138E-02 -1.14737E+00 -7.01704E-04 -1.10616E+00  2.41556E-04 -9.80051E-05 -1.08816E-04  2.61899E-03 -3.52927E+00 -7.63127E-05  4.73958E-05  5.89899E-05  1.75820E-07  1.50000E+01