 TITLE="3D TRIANGULAR SURFACE DATA"
VARIABLES="X","Y","Z","U","V","W","P", "Fex", "Fey", "Fez","Finx","Finy","Finz","WSSx","WSSy","WSSz","AMForce"
 ZONE T="unstruc"N=        1757 E=        3355 F=FEPOINT  ET=TRIANGLE
  2.03076E+01  2.02757E+01  2.00978E+01  1.57297E-01 -1.21950E+00 -2.92202E-03  1.10607E+00 -6.56247E-04  6.30509E-04  1.50881E-04  1.39384E-02 -5.05460E+00 -9.01573E-04  3.52477E-05  4.28679E-05 -4.61103E-06  1.50000E+01
  2.03224E+01  2.02928E+01  2.00981E+01  1.45237E-01 -1.20216E+00 -2.62271E-03  1.14780E+00 -3.15805E-04  3.11196E-04  7.10906E-05  4.87578E-03 -2.33830E+00 -3.00958E-03  1.70275E-05  2.01822E-05 -2.35633E-06  1.50000E+01
  2.03175E+01  2.02920E+01  2.00768E+01  1.46470E-01 -1.20151E+00 -2.52649E-03  1.19019E+00 -4.92062E-04  4.83912E-04  8.55888E-05  1.40268E-02 -3.45366E+00 -4.56843E-03  2.52393E-05  2.95525E-05 -3.35213E-06  1.50000E+01
  2.03088E+01  2.02674E+01  2.01290E+01  1.61270E-01 -1.22783E+00 -3.97756E-03  1.14994E+00 -5.20608E-04  4.94961E-04  1.57823E-04  9.76829E-03 -4.28895E+00 -1.85345E-03  2.96334E-05  3.70453E-05 -3.71521E-06  1.50000E+01
  2.03218E+01  2.02861E+01  2.01192E+01  1.51391E-01 -1.21090E+00 -2.68414E-03  1.14209E+00 -4.38371E-04  4.26645E-04  1.21980E-04  1.16725E-02 -3.45840E+00 -2.93721E-04  2.47668E-05  3.01235E-05 -3.27604E-06  1.50000E+01
  2.03339E+01  2.03027E+01  2.01102E+01  1.35367E-01 -1.18913E+00 -1.23785E-03  1.16753E+00 -3.87094E-04  3.92007E-04  9.71345E-05  1.28315E-02 -2.92788E+00 -3.53558E-03  2.20796E-05  2.57721E-05 -3.34442E-06  1.50000E+01
  2.03316E+01  2.03060E+01  2.00862E+01  1.31124E-01 -1.18244E+00 -8.05507E-04  1.21989E+00 -4.17023E-04  4.25690E-04  7.99488E-05  1.30041E-02 -2.92857E+00 -1.23501E-03  2.24842E-05  2.55676E-05 -3.27033E-06  1.50000E+01
  2.03142E+01  2.02927E+01  2.00497E+01  1.45602E-01 -1.19969E+00 -1.53625E-03  1.23075E+00 -5.31193E-04  5.27555E-04  6.08114E-05  1.31747E-02 -3.75718E+00 -1.26064E-03  2.73791E-05  3.13612E-05 -2.87305E-06  1.50000E+01
  2.03021E+01  2.02764E+01  2.00663E+01  1.56573E-01 -1.21723E+00 -1.88394E-03  1.18445E+00 -5.98818E-04  5.77299E-04  9.48615E-05  9.95218E-03 -4.29390E+00  6.49436E-04  3.01090E-05  3.57552E-05 -3.61104E-06  1.50000E+01
  2.02994E+01  2.02773E+01  2.00374E+01  1.55883E-01 -1.21559E+00 -1.10146E-03  1.21871E+00 -5.64865E-04  5.47250E-04  5.05387E-05  9.68218E-03 -4.03126E+00  6.45406E-05  2.80958E-05  3.27160E-05 -2.15304E-06  1.50000E+01
  2.03239E+01  2.02794E+01  2.01454E+01  1.56177E-01 -1.21943E+00 -3.59682E-03  1.15471E+00 -4.63837E-04  4.44775E-04  1.56407E-04  1.16641E-02 -3.74658E+00 -1.54270E-03  2.65424E-05  3.30168E-05 -3.23692E-06  1.50000E+01
  2.03359E+01  2.02975E+01  2.01347E+01  1.41800E-01 -1.19819E+00 -1.57754E-03  1.21555E+00 -4.31138E-04  4.29143E-04  1.32454E-04  1.48487E-02 -3.39859E+00 -2.76258E-03  2.54581E-05  3.05416E-05 -3.58205E-06  1.50000E+01
  2.02769E+01  2.02390E+01  2.00970E+01  1.65024E-01 -1.24147E+00 -2.72208E-03  1.05387E+00 -5.29576E-04  4.96817E-04  1.28506E-04  5.43399E-03 -4.40608E+00 -3.94700E-04  2.93474E-05  3.67377E-05 -3.48853E-06  1.50000E+01
  2.02739E+01  2.02425E+01  2.00680E+01  1.64548E-01 -1.23845E+00 -1.81173E-03  1.06896E+00 -5.43624E-04  5.12225E-04  9.25687E-05  5.35418E-03 -4.33079E+00 -2.67893E-04  2.89008E-05  3.53659E-05 -2.93796E-06  1.50000E+01
  2.02613E+01  2.02241E+01  2.00822E+01  1.64171E-01 -1.24590E+00 -1.92399E-03  1.03823E+00 -4.99673E-04  4.68290E-04  1.05827E-04  4.11311E-03 -4.26005E+00 -1.60663E-04  2.82745E-05  3.52106E-05 -2.74173E-06  1.50000E+01
  2.02930E+01  2.02539E+01  2.01123E+01  1.64111E-01 -1.23529E+00 -3.52106E-03  1.10385E+00 -5.63636E-04  5.31631E-04  1.53137E-04  7.74753E-03 -4.65438E+00 -1.01559E-03  3.14457E-05  3.93789E-05 -3.97903E-06  1.50000E+01
  2.02804E+01  2.02339E+01  2.01255E+01  1.65544E-01 -1.24569E+00 -3.63000E-03  1.05199E+00 -5.01906E-04  4.66555E-04  1.56693E-04  5.33145E-03 -4.30571E+00 -5.47720E-04  2.89177E-05  3.71697E-05 -3.63918E-06  1.50000E+01
  2.02963E+01  2.02475E+01  2.01410E+01  1.65592E-01 -1.24108E+00 -4.52405E-03  1.06299E+00 -4.92752E-04  4.59486E-04  1.68023E-04  6.94128E-03 -4.23000E+00 -1.39922E-03  2.88976E-05  3.72161E-05 -3.57657E-06  1.50000E+01
  2.02897E+01  2.02583E+01  2.00825E+01  1.62788E-01 -1.23102E+00 -2.48844E-03  1.07892E+00 -5.99232E-04  5.68591E-04  1.20322E-04  7.73471E-03 -4.65821E+00 -7.16668E-04  3.15531E-05  3.85472E-05 -3.76158E-06  1.50000E+01
  2.02866E+01  2.02604E+01  2.00530E+01  1.62079E-01 -1.22853E+00 -1.47356E-03  1.12331E+00 -5.84871E-04  5.54989E-04  7.58063E-05  7.37900E-03 -4.26203E+00 -9.45056E-05  2.87839E-05  3.44451E-05 -2.70284E-06  1.50000E+01
  2.03455E+01  2.03185E+01  2.00983E+01  1.11500E-01 -1.15905E+00  1.94664E-03  1.22633E+00 -4.48369E-04  4.78011E-04  9.73147E-05  1.95879E-02 -3.15366E+00 -3.16863E-03  2.56260E-05  2.82641E-05 -4.24097E-06  1.50000E+01
  2.03432E+01  2.03212E+01  2.00727E+01  1.06128E-01 -1.15128E+00  1.66734E-03  1.29099E+00 -4.74466E-04  5.12320E-04  7.55355E-05  2.02074E-02 -3.24723E+00 -1.94754E-03  2.71176E-05  2.90731E-05 -3.83095E-06  1.50000E+01
  2.03479E+01  2.03145E+01  2.01235E+01  1.18742E-01 -1.16910E+00  1.75247E-03  1.19638E+00 -4.26560E-04  4.48593E-04  1.17305E-04  1.87426E-02 -3.26708E+00 -4.38001E-03  2.59898E-05  2.96487E-05 -4.50667E-06  1.50000E+01
  2.03287E+01  2.03074E+01  2.00611E+01  1.29493E-01 -1.17860E+00 -9.06609E-04  1.21572E+00 -4.89836E-04  5.03358E-04  6.64193E-05  1.77114E-02 -3.39683E+00 -2.36267E-03  2.62975E-05  2.93428E-05 -3.27585E-06  1.50000E+01
  2.03413E+01  2.03228E+01  2.00464E+01  1.02659E-01 -1.14598E+00  8.06363E-04  1.10309E+00 -5.10227E-04  5.55603E-04  5.08009E-05  2.17914E-02 -3.40820E+00 -1.79785E-03  2.90584E-05  3.04756E-05 -2.96058E-06  1.50000E+01
  2.02849E+01  2.02615E+01  2.00241E+01  1.61656E-01 -1.22725E+00 -6.11769E-04  1.19244E+00 -5.68095E-04  5.40090E-04  3.41802E-05  7.02759E-03 -4.09495E+00  1.48427E-04  2.73863E-05  3.22960E-05 -1.49090E-06  1.50000E+01
  2.03124E+01  2.02933E+01  2.00218E+01  1.44792E-01 -1.19843E+00 -8.49452E-04  1.18672E+00 -5.31950E-04  5.31946E-04  2.65266E-05  1.28646E-02 -3.81415E+00 -3.00172E-04  2.76967E-05  3.12203E-05 -1.41812E-06  1.50000E+01
  2.02982E+01  2.02777E+01  2.00089E+01  1.55518E-01 -1.21493E+00 -3.68811E-04  1.21324E+00 -5.43686E-04  5.29196E-04  1.21055E-05  9.32818E-03 -3.95156E+00  2.19071E-04  2.72163E-05  3.13787E-05 -4.95741E-07  1.50000E+01
  2.02846E+01  2.02276E+01  2.01531E+01  1.65818E-01 -1.25101E+00 -4.49131E-03  1.01972E+00 -4.60327E-04  4.24206E-04  1.75316E-04  5.19693E-03 -4.15233E+00 -8.00521E-04  2.81916E-05  3.70969E-05 -3.19575E-06  1.50000E+01
  2.03006E+01  2.02406E+01  2.01682E+01  1.66550E-01 -1.24782E+00 -5.37095E-03  1.04812E+00 -4.53205E-04  4.16737E-04  1.84531E-04  6.33077E-03 -4.05635E+00 -1.30199E-03  2.74559E-05  3.61896E-05 -2.95075E-06  1.50000E+01
  2.06436E+01  2.04496E+01  1.96967E+01 -4.10709E-01 -2.78704E-01 -2.15981E-01  9.03387E-01 -1.01047E-04  6.03727E-04  6.02010E-05 -2.01996E-02 -8.31731E-01 -8.27330E-03  3.60497E-05  8.36052E-06  2.83795E-06  1.50000E+01
  2.06230E+01  2.04438E+01  1.97088E+01 -4.05074E-01 -2.93628E-01 -2.10654E-01  8.64498E-01 -1.08554E-04  6.10065E-04  4.63058E-05 -2.29208E-02 -8.76279E-01 -1.07491E-02  3.44393E-05  8.35116E-06  1.53590E-06  1.50000E+01
  2.06424E+01  2.04466E+01  1.97232E+01 -4.34671E-01 -1.76526E-01 -1.92344E-01  7.95631E-01 -7.45706E-05  5.85672E-04  7.28426E-05 -1.57231E-02 -5.08938E-01 -2.82401E-03  3.55533E-05  6.73693E-06  1.33454E-06  1.50000E+01
  2.06217E+01  2.04412E+01  1.97354E+01 -4.30473E-01 -1.87533E-01 -1.87982E-01  7.12844E-01 -6.73334E-05  5.38411E-04  5.52048E-05 -1.83076E-02 -5.39287E-01 -4.79209E-03  3.44673E-05  6.74258E-06  5.07136E-07  1.50000E+01
  2.06413E+01  2.04430E+01  1.97496E+01 -4.52840E-01 -8.82119E-02 -1.67921E-01  6.41157E-01 -3.46986E-05  4.64167E-04  6.59060E-05 -1.16252E-02 -2.33444E-01  9.07665E-04  3.53268E-05  5.39285E-06  8.22859E-07  1.50000E+01
  2.07056E+01  2.04685E+01  1.96610E+01 -4.20972E-01 -2.63324E-01 -2.31728E-01  5.27321E-01 -3.79184E-05  3.17970E-04  4.70896E-05 -1.52672E-02 -7.92986E-01 -3.93583E-03  3.60389E-05  8.47159E-06  2.09615E-06  1.50000E+01
  2.06849E+01  2.04620E+01  1.96727E+01 -4.18255E-01 -2.64689E-01 -2.26321E-01  5.78785E-01 -5.70935E-05  3.99733E-04  5.22302E-05 -1.63251E-02 -7.94149E-01 -4.85584E-03  3.45914E-05  8.15555E-06  7.93346E-07  1.50000E+01
  2.07044E+01  2.04641E+01  1.96871E+01 -4.42600E-01 -1.69917E-01 -2.06526E-01  4.79682E-01 -2.58369E-05  3.12801E-04  5.43147E-05 -1.12311E-02 -5.01223E-01  2.06633E-04  3.60768E-05  7.44207E-06  2.04607E-07  1.50000E+01
  2.03509E+01  2.03095E+01  2.01490E+01  1.26999E-01 -1.18070E+00  1.31691E-03  1.32402E+00 -4.32129E-04  4.45040E-04  1.43201E-04  1.80952E-02 -3.45671E+00 -4.32228E-03  2.71107E-05  3.18388E-05 -4.16224E-06  1.50000E+01
  2.07035E+01  2.04591E+01  1.97131E+01 -4.59034E-01 -9.01732E-02 -1.81321E-01  3.72980E-01 -7.68915E-06  2.72131E-04  5.20019E-05 -7.94579E-03 -2.53993E-01  2.64893E-03  3.76944E-05  6.68573E-06 -3.07908E-07  1.50000E+01
  2.07242E+01  2.04652E+01  1.97013E+01 -4.60912E-01 -9.40145E-02 -1.86621E-01  3.63001E-01 -2.27042E-06  2.25946E-04  4.50677E-05 -7.44947E-03 -2.69179E-01  2.73703E-03  3.81350E-05  7.26431E-06 -7.78780E-07  1.50000E+01
  2.03549E+01  2.03377E+01  2.00321E+01  6.31620E-02 -1.09951E+00  2.17709E-03  1.12971E+00 -5.65981E-04  6.60676E-04  3.74758E-05  2.43464E-02 -3.31648E+00 -1.25027E-03  3.16362E-05  3.06612E-05 -2.26902E-06  1.50000E+01
  2.03402E+01  2.03236E+01  2.00194E+01  1.00507E-01 -1.14308E+00 -1.76876E-04  1.07342E+00 -5.47238E-04  5.96724E-04  2.19640E-05  2.12871E-02 -3.49064E+00 -8.29049E-04  2.97439E-05  3.07455E-05 -1.54850E-06  1.50000E+01
  2.03120E+01  2.02603E+01  2.01566E+01  1.63839E-01 -1.23550E+00 -4.92254E-03  1.09591E+00 -4.68236E-04  4.38421E-04  1.73292E-04  8.41067E-03 -3.99629E+00 -1.77032E-03  2.75293E-05  3.53830E-05 -3.24389E-06  1.50000E+01
  2.03165E+01  2.02532E+01  2.01830E+01  1.65684E-01 -1.24366E+00 -5.82351E-03  1.07862E+00 -4.40329E-04  4.05955E-04  1.90503E-04  7.59035E-03 -3.93756E+00 -1.68441E-03  2.67876E-05  3.52738E-05 -2.74950E-06  1.50000E+01
  2.03277E+01  2.02727E+01  2.01717E+01  1.59851E-01 -1.22841E+00 -4.64624E-03  1.10682E+00 -4.51580E-04  4.25951E-04  1.79678E-04  1.02428E-02 -3.80540E+00 -2.15077E-03  2.67324E-05  3.40997E-05 -2.90663E-06  1.50000E+01
  2.02842E+01  2.02615E+01  1.99956E+01  1.61599E-01 -1.22708E+00  1.53473E-04  1.21313E+00 -5.52867E-04  5.26252E-04 -5.39474E-06  6.86452E-03 -4.00590E+00  3.03964E-04  2.65517E-05  3.11707E-05  2.25558E-07  1.50000E+01
  2.03118E+01  2.02932E+01  1.99938E+01  1.44678E-01 -1.19843E+00 -3.40269E-04  1.08530E+00 -5.34405E-04  5.34759E-04 -7.37248E-06  1.24519E-02 -3.80772E+00  2.57711E-04  2.75039E-05  3.08733E-05  2.42797E-07  1.50000E+01
  2.02980E+01  2.02771E+01  1.99808E+01  1.55753E-01 -1.21549E+00  3.05859E-04  1.21540E+00 -5.46575E-04  5.30979E-04 -2.48549E-05  9.12701E-03 -3.90132E+00  4.46992E-04  2.70017E-05  3.11897E-05  1.13861E-06  1.50000E+01
  2.06604E+01  2.04391E+01  1.97897E+01 -4.79068E-01  4.63571E-02 -1.25559E-01  4.57184E-01  3.24766E-06  3.32986E-04  5.65518E-05 -5.05796E-03  1.74715E-01  4.18343E-03  3.68066E-05  3.77122E-06  4.34395E-07  1.50000E+01
  2.06811E+01  2.04435E+01  1.97773E+01 -4.80530E-01  4.07815E-02 -1.29909E-01  3.64322E-01  6.47540E-06  2.77474E-04  5.13243E-05 -4.38887E-03  1.52993E-01  4.24317E-03  3.69900E-05  4.27815E-06 -3.09600E-07  1.50000E+01
  2.06612E+01  2.04436E+01  1.97635E+01 -4.68627E-01 -1.40187E-02 -1.48044E-01  4.84658E-01 -9.26963E-06  3.61103E-04  6.10863E-05 -7.11401E-03 -9.99820E-03  3.53345E-03  3.59324E-05  4.58252E-06  4.62169E-07  1.50000E+01
  2.03603E+01  2.03309E+01  2.01112E+01  8.38716E-02 -1.12741E+00  7.11158E-03  1.24147E+00 -4.59415E-04  5.18818E-04  1.10599E-04  2.35035E-02 -3.25721E+00 -4.33217E-03  2.86820E-05  3.04286E-05 -5.67057E-06  1.50000E+01
  2.01078E+01  1.99739E+01  2.01911E+01  5.40263E-02 -1.24555E+00 -4.25674E-04  3.23563E-01 -6.75323E-05  1.46232E-04  6.58921E-05  1.41840E-03 -3.91003E+00 -1.79571E-04  4.36630E-05  5.84997E-05 -2.27178E-06  1.50000E+01
  2.00977E+01  1.99519E+01  2.02018E+01  4.06095E-02 -1.24242E+00 -2.63704E-04  3.01229E-01 -4.17999E-06  1.19037E-04  3.55640E-05  1.09271E-03 -3.90104E+00 -1.17129E-04  5.66348E-05  7.40802E-05 -1.07850E-06  1.50000E+01
  2.01152E+01  1.99634E+01  2.02147E+01  4.64937E-02 -1.25073E+00 -1.88926E-04 -1.57229E-01  1.77751E-04 -8.85522E-06 -8.67202E-05  9.04259E-04 -3.93732E+00  7.26059E-05  6.05811E-05  7.97986E-05  3.01357E-07  1.50000E+01
  2.07227E+01  2.04537E+01  1.97529E+01 -4.83254E-01  2.73549E-02 -1.39776E-01  2.09013E-01  1.70704E-05  1.64893E-04  3.45066E-05 -3.45999E-03  1.05003E-01  4.09970E-03  3.91190E-05  5.63849E-06 -1.02254E-06  1.50000E+01
  2.07434E+01  2.04595E+01  1.97409E+01 -4.84865E-01  2.14399E-02 -1.45275E-01  1.24255E-01  1.02358E-05  7.06167E-05  1.51886E-05 -1.48152E-02  8.63227E-02  1.33855E-02  2.02151E-05  3.19104E-06 -6.99017E-07  1.50000E+01
  2.07234E+01  2.04595E+01  1.97271E+01 -4.73355E-01 -2.80609E-02 -1.62387E-01  2.99092E-01  1.08431E-05  1.87037E-04  3.89086E-05 -5.06078E-03 -6.56482E-02  3.79290E-03  3.97467E-05  6.59504E-06 -9.80709E-07  1.50000E+01
  2.06620E+01  2.04480E+01  1.97373E+01 -4.55252E-01 -8.60100E-02 -1.72009E-01  5.65435E-01 -2.97104E-05  4.22578E-04  6.78518E-05 -9.99911E-03 -2.31866E-01  1.81025E-03  3.58878E-05  5.61834E-06  8.26867E-07  1.50000E+01
  2.06819E+01  2.04485E+01  1.97512E+01 -4.70250E-01 -1.76354E-02 -1.52402E-01  4.08465E-01 -4.45470E-06  3.09057E-04  5.73248E-05 -6.20220E-03 -2.61067E-02  3.76335E-03  3.68197E-05  5.08916E-06  2.27646E-08  1.50000E+01
  2.02846E+01  2.02605E+01  1.99676E+01  1.61953E-01 -1.22803E+00  8.66402E-04  1.15437E+00 -5.62682E-04  5.33345E-04 -4.41182E-05  6.83271E-03 -3.95399E+00  3.95926E-04  2.65114E-05  3.13686E-05  1.68207E-06  1.50000E+01
  2.02718E+01  2.02446E+01  2.00391E+01  1.64264E-01 -1.23659E+00 -9.25188E-04  1.10829E+00 -5.54719E-04  5.22155E-04  5.44253E-05  5.33034E-03 -4.19113E+00  2.62545E-05  2.77371E-05  3.33419E-05 -1.94416E-06  1.50000E+01
  2.02707E+01  2.02454E+01  2.00105E+01  1.64163E-01 -1.23581E+00 -1.37344E-04  1.15925E+00 -5.56334E-04  5.22841E-04  1.51981E-05  5.27157E-03 -4.09142E+00  1.86710E-04  2.67530E-05  3.18693E-05 -5.55585E-07  1.50000E+01
  2.06864E+01  2.04651E+01  1.96464E+01 -3.89208E-01 -3.74281E-01 -2.49169E-01  7.01735E-01 -8.34900E-05  4.36825E-04  3.98616E-05 -2.04273E-02 -1.14130E+00 -1.10773E-02  3.58008E-05  9.96068E-06  2.25733E-06  1.50000E+01
  2.06206E+01  2.04382E+01  1.97620E+01 -4.49653E-01 -9.53452E-02 -1.64061E-01  6.66699E-01 -3.63140E-05  4.80175E-04  5.91756E-05 -1.37789E-02 -2.50306E-01 -4.80232E-04  3.57641E-05  5.40306E-06  1.64249E-06  1.50000E+01
  2.06404E+01  2.04390E+01  1.97760E+01 -4.66662E-01 -1.32381E-02 -1.44070E-01  5.56835E-01 -1.27638E-05  4.11651E-04  6.25043E-05 -8.32940E-03 -2.15082E-03  3.02386E-03  3.64271E-05  4.36073E-06  1.11118E-06  1.50000E+01
  2.02589E+01  2.02270E+01  2.00537E+01  1.64178E-01 -1.24367E+00 -1.16156E-03  1.02587E+00 -5.09900E-04  4.79006E-04  7.07520E-05  4.07901E-03 -4.20822E+00 -5.74516E-05  2.76770E-05  3.38048E-05 -2.00309E-06  1.50000E+01
  2.02442E+01  2.02113E+01  2.00396E+01  1.62314E-01 -1.24734E+00 -6.42347E-04  1.00362E+00 -4.79385E-04  4.50467E-04  5.05564E-05  3.35728E-03 -4.13957E+00  8.75450E-06  2.69048E-05  3.28215E-05 -1.38229E-06  1.50000E+01
  2.02462E+01  2.02090E+01  2.00678E+01  1.62016E-01 -1.24897E+00 -1.24360E-03  1.01822E+00 -4.70753E-04  4.42015E-04  8.46203E-05  3.34592E-03 -4.17830E+00 -3.65476E-05  2.75634E-05  3.41623E-05 -2.19045E-06  1.50000E+01
  2.03581E+01  2.03342E+01  2.00852E+01  7.46741E-02 -1.11516E+00  6.25970E-03  1.38132E+00 -4.87309E-04  5.60478E-04  9.00002E-05  2.41972E-02 -3.22837E+00 -3.14386E-03  2.95819E-05  3.01710E-05 -4.91661E-06  1.50000E+01
  2.03562E+01  2.03364E+01  2.00589E+01  6.76398E-02 -1.10567E+00  4.57275E-03  1.34547E+00 -5.05663E-04  5.90052E-04  6.31223E-05  2.42044E-02 -3.26755E+00 -1.97812E-03  3.11311E-05  3.07950E-05 -3.86903E-06  1.50000E+01
  2.03694E+01  2.03517E+01  2.00179E+01  9.33560E-03 -1.03482E+00  2.37631E-03  1.20487E+00 -6.67124E-04  8.51193E-04  2.27836E-05  2.32124E-02 -3.14711E+00 -5.18853E-04  3.38033E-05  2.95961E-05 -1.48554E-06  1.50000E+01
  2.03543E+01  2.03380E+01  2.00049E+01  6.14382E-02 -1.09714E+00 -5.14056E-04  1.10986E+00 -5.99571E-04  6.99503E-04  4.90138E-06  2.39298E-02 -3.35162E+00 -2.98542E-04  3.18463E-05  3.05761E-05 -2.31545E-07  1.50000E+01
  2.06828E+01  2.04534E+01  1.97251E+01 -4.57223E-01 -8.71249E-02 -1.76454E-01  4.39851E-01 -1.74932E-05  3.36641E-04  6.01158E-05 -8.78978E-03 -2.40263E-01  2.36704E-03  3.65463E-05  5.96035E-06  7.65177E-07  1.50000E+01
  2.06838E+01  2.04579E+01  1.96990E+01 -4.40369E-01 -1.69097E-01 -2.01471E-01  4.91010E-01 -3.47070E-05  3.67169E-04  5.87679E-05 -1.22403E-02 -4.94727E-01 -3.76446E-04  3.55365E-05  7.00674E-06  5.91029E-07  1.50000E+01
  2.06024E+01  2.04380E+01  1.97211E+01 -3.97458E-01 -3.15504E-01 -2.04783E-01  7.27587E-01 -1.01284E-04  5.51941E-04  2.83928E-05 -2.60281E-02 -9.44140E-01 -1.36213E-02  3.34831E-05  8.54541E-06  1.41490E-06  1.50000E+01
  2.02686E+01  2.02141E+01  2.01382E+01  1.63816E-01 -1.25338E+00 -3.43948E-03  9.90690E-01 -4.55205E-04  4.21092E-04  1.60752E-04  4.15958E-03 -4.18251E+00 -3.17317E-04  2.81023E-05  3.68460E-05 -3.35035E-06  1.50000E+01
  2.02573E+01  2.01941E+01  2.01506E+01  1.59770E-01 -1.25929E+00 -3.06237E-03  9.70396E-01 -4.20679E-04  3.89451E-04  1.66938E-04  3.53710E-03 -4.14338E+00 -1.40543E-04  2.84015E-05  3.76408E-05 -2.74270E-06  1.50000E+01
  2.02734E+01  2.02074E+01  2.01652E+01  1.63111E-01 -1.25867E+00 -4.13585E-03  9.83158E-01 -4.24038E-04  3.89845E-04  1.79049E-04  4.20255E-03 -4.12618E+00 -4.33416E-04  2.82485E-05  3.76590E-05 -2.59132E-06  1.50000E+01
  2.07026E+01  2.04538E+01  1.97391E+01 -4.71755E-01 -2.27023E-02 -1.57184E-01  3.40740E-01  2.35577E-06  2.48408E-04  4.97129E-05 -5.50977E-03 -4.59488E-02  3.82026E-03  3.82938E-05  5.71192E-06 -5.27090E-08  1.50000E+01
  2.06246E+01  2.04455E+01  1.96821E+01 -3.71964E-01 -4.12533E-01 -2.29966E-01  8.76079E-01 -1.38693E-04  6.10203E-04  2.29031E-05 -2.64212E-02 -1.25939E+00 -1.76215E-02  3.62613E-05  1.08281E-05  3.56376E-06  1.50000E+01
  2.06041E+01  2.04391E+01  1.96943E+01 -3.62087E-01 -4.37509E-01 -2.22174E-01  7.62043E-01 -1.36368E-04  5.66895E-04  7.52535E-06 -2.87574E-02 -1.33980E+00 -2.03211E-02  3.32397E-05  1.05394E-05  2.61412E-06  1.50000E+01
  2.03325E+01  2.02655E+01  2.01976E+01  1.62879E-01 -1.23816E+00 -5.69670E-03  1.09784E+00 -4.31373E-04  4.00263E-04  1.96812E-04  9.16110E-03 -3.85586E+00 -2.28006E-03  2.65236E-05  3.47209E-05 -2.50078E-06  1.50000E+01
  2.03435E+01  2.02850E+01  2.01862E+01  1.53025E-01 -1.21915E+00 -3.48026E-03  1.13825E+00 -4.38485E-04  4.20383E-04  1.85173E-04  1.23080E-02 -3.72826E+00 -3.12336E-03  2.67112E-05  3.37897E-05 -3.02108E-06  1.50000E+01
  2.03219E+01  2.02454E+01  2.02089E+01  1.66926E-01 -1.25273E+00 -6.68679E-03  1.05675E+00 -4.13370E-04  3.75518E-04  2.03437E-04  7.03587E-03 -3.95753E+00 -1.68267E-03  2.64332E-05  3.54882E-05 -2.00614E-06  1.50000E+01
  2.03121E+01  2.02922E+01  1.99660E+01  1.45575E-01 -1.20001E+00  1.24286E-04  1.23051E+00 -5.43775E-04  5.41754E-04 -4.25984E-05  1.22162E-02 -3.79657E+00  6.83183E-04  2.76581E-05  3.13331E-05  2.01411E-06  1.50000E+01
  2.06643E+01  2.04557E+01  1.96846E+01 -4.14949E-01 -2.69463E-01 -2.21121E-01  5.75862E-01 -6.94127E-05  4.58373E-04  5.33235E-05 -1.80036E-02 -8.05851E-01 -6.29695E-03  3.45417E-05  7.97937E-06  1.66891E-06  1.50000E+01
  2.06658E+01  2.04584E+01  1.96582E+01 -3.85000E-01 -3.81735E-01 -2.43121E-01  5.99660E-01 -8.74869E-05  4.47663E-04  3.42312E-05 -2.20390E-02 -1.16306E+00 -1.28019E-02  3.42194E-05  9.65179E-06  1.63966E-06  1.50000E+01
  2.06452E+01  2.04519E+01  1.96701E+01 -3.79411E-01 -3.94210E-01 -2.36820E-01  6.72390E-01 -1.12433E-04  5.28760E-04  3.03956E-05 -2.41204E-02 -1.20152E+00 -1.50439E-02  3.44884E-05  9.88293E-06  3.01936E-06  1.50000E+01
  2.05838E+01  2.04326E+01  1.97065E+01 -3.49086E-01 -4.69857E-01 -2.12979E-01  8.28741E-01 -1.63716E-04  6.10599E-04 -1.09476E-05 -3.06594E-02 -1.44587E+00 -2.27826E-02  3.36841E-05  1.15502E-05  3.46771E-06  1.50000E+01
  2.03760E+01  2.03431E+01  2.01246E+01  4.73261E-02 -1.08584E+00  1.56321E-02  1.29292E+00 -4.51670E-04  5.47360E-04  1.19145E-04  2.42950E-02 -3.22736E+00 -4.60323E-03  3.02726E-05  3.05146E-05 -7.08803E-06  1.50000E+01
  2.03631E+01  2.03267E+01  2.01371E+01  9.46467E-02 -1.14178E+00  7.21374E-03  1.34564E+00 -4.34457E-04  4.81003E-04  1.29334E-04  2.21101E-02 -3.35183E+00 -5.23782E-03  2.84606E-05  3.14076E-05 -5.73916E-06  1.50000E+01
  2.02646E+01  2.02197E+01  2.01105E+01  1.64103E-01 -1.24913E+00 -2.69100E-03  1.01827E+00 -4.89610E-04  4.55226E-04  1.38896E-04  4.14036E-03 -4.24699E+00 -2.40641E-04  2.83368E-05  3.61779E-05 -3.20790E-06  1.50000E+01
  2.02491E+01  2.02052E+01  2.00958E+01  1.61569E-01 -1.25147E+00 -1.85887E-03  1.01712E+00 -4.65907E-04  4.34770E-04  1.18032E-04  3.40086E-03 -4.19082E+00 -7.73013E-05  2.78414E-05  3.52626E-05 -2.76254E-06  1.50000E+01
  2.01052E+01  1.99407E+01  2.02248E+01  3.25827E-02 -1.24785E+00  0.00000E+00 -5.19628E-01  1.21763E-04 -2.09608E-05 -6.06094E-05  6.58417E+00  4.66354E+01 -3.97745E+01  3.53216E-05  4.47013E-05  1.43497E-06  1.50000E+01
  2.07448E+01  2.04717E+01  1.96895E+01 -4.63013E-01 -9.77986E-02 -1.92330E-01  3.49787E-02  1.68580E-06  9.36725E-05  1.92562E-05 -2.41897E-02 -7.06312E-02  1.49922E-02  1.90865E-05  3.78346E-06 -5.53783E-08  1.50000E+01
  2.07251E+01  2.04705E+01  1.96754E+01 -4.44760E-01 -1.72295E-01 -2.11968E-01  2.67840E-01 -9.46929E-06  2.29480E-04  4.36215E-05 -1.07574E-02 -5.11690E-01  4.71466E-04  3.71950E-05  7.74570E-06  1.62889E-06  1.50000E+01
  2.06063E+01  2.04391E+01  1.96675E+01 -3.17810E-01 -5.68052E-01 -2.33162E-01  7.28664E-01 -1.62200E-04  5.49893E-04 -1.89335E-05 -2.80564E-02 -1.76831E+00 -2.56346E-02  3.63253E-05  1.43185E-05  5.32533E-06  1.50000E+01
  2.05860E+01  2.04320E+01  1.96797E+01 -3.02172E-01 -6.00801E-01 -2.21184E-01  7.97851E-01 -1.83274E-04  5.60824E-04 -3.66122E-05 -2.79633E-02 -1.87759E+00 -2.66710E-02  3.43546E-05  1.47888E-05  6.29148E-06  1.50000E+01
  2.02706E+01  2.02450E+01  1.99823E+01  1.64270E-01 -1.23605E+00  5.68472E-04  1.14758E+00 -5.50190E-04  5.16438E-04 -2.36308E-05  5.26278E-03 -4.02193E+00  2.41139E-04  2.63077E-05  3.13710E-05  9.32697E-07  1.50000E+01
  2.03666E+01  2.03216E+01  2.01630E+01  1.06289E-01 -1.15774E+00  6.65937E-03  1.33608E+00 -4.40600E-04  4.72830E-04  1.56256E-04  2.08663E-02 -3.46102E+00 -5.52634E-03  2.83761E-05  3.24715E-05 -5.20988E-06  1.50000E+01
  2.02895E+01  2.02203E+01  2.01798E+01  1.65581E-01 -1.25743E+00 -5.22235E-03  9.91673E-01 -4.27810E-04  3.89910E-04  1.90964E-04  5.00759E-03 -4.08022E+00 -8.27297E-04  2.76622E-05  3.70137E-05 -2.29372E-06  1.50000E+01
  2.03057E+01  2.02330E+01  2.01944E+01  1.66934E-01 -1.25551E+00 -6.12491E-03  1.04016E+00 -4.18121E-04  3.79861E-04  1.96326E-04  5.92395E-03 -4.01675E+00 -1.20667E-03  2.70319E-05  3.62950E-05 -2.16479E-06  1.50000E+01
  2.01180E+01  1.99956E+01  2.01801E+01  6.70716E-02 -1.24827E+00 -4.99844E-04  4.08142E-01 -1.02791E-04  1.59950E-04  7.74139E-05  1.56063E-03 -3.92851E+00 -1.64317E-04  3.77753E-05  5.02704E-05 -1.83018E-06  1.50000E+01
  2.01011E+01  1.99832E+01  2.01670E+01  6.06856E-02 -1.24127E+00 -6.34002E-04  4.17867E-01 -1.03630E-04  1.62337E-04  7.35310E-05  1.63446E-03 -3.88212E+00 -2.40097E-04  3.85432E-05  5.01279E-05 -1.17721E-06  1.50000E+01
  2.06677E+01  2.04601E+01  1.96316E+01 -3.46520E-01 -5.06215E-01 -2.60226E-01  6.51325E-01 -1.17618E-04  4.77551E-04  1.35902E-05 -2.45219E-02 -1.56435E+00 -1.99176E-02  3.66862E-05  1.24504E-05  4.00037E-06  1.50000E+01
  2.02299E+01  2.01954E+01  2.00257E+01  1.59272E-01 -1.24981E+00 -2.71631E-04  9.66523E-01 -4.53831E-04  4.27386E-04  3.21437E-05  2.94604E-03 -4.09456E+00  9.35260E-06  2.64856E-05  3.22881E-05 -8.23664E-07  1.50000E+01
  2.02314E+01  2.01936E+01  2.00537E+01  1.58845E-01 -1.25095E+00 -7.27365E-04  1.01449E+00 -4.49068E-04  4.22805E-04  6.59667E-05  2.92210E-03 -4.12354E+00  1.51472E-05  2.70252E-05  3.33319E-05 -1.61442E-06  1.50000E+01
  2.03735E+01  2.03466E+01  2.00983E+01  3.33577E-02 -1.06736E+00  1.40803E-02  1.38981E+00 -4.95027E-04  6.14051E-04  1.03120E-04  2.45539E-02 -3.16312E+00 -3.42844E-03  3.09876E-05  2.96505E-05 -5.87102E-06  1.50000E+01
  2.03716E+01  2.03492E+01  2.00717E+01  2.19019E-02 -1.05207E+00  1.12284E-02  1.56431E+00 -5.26385E-04  6.67354E-04  7.99551E-05  2.42182E-02 -3.13386E+00 -2.25639E-03  3.24245E-05  2.97322E-05 -4.54028E-06  1.50000E+01
  2.02626E+01  2.01868E+01  2.01772E+01  1.58119E-01 -1.26474E+00 -3.61099E-03  9.44312E-01 -3.90398E-04  3.59775E-04  1.81856E-04  3.53674E-03 -4.12353E+00 -2.54615E-04  2.88745E-05  3.87320E-05 -1.77186E-06  1.50000E+01
  2.02521E+01  2.01658E+01  2.01891E+01  1.51266E-01 -1.26960E+00 -3.00130E-03  8.98466E-01 -3.55956E-04  3.30582E-04  1.81992E-04  3.05480E-03 -4.11806E+00 -1.43613E-04  2.90628E-05  3.94684E-05 -1.53616E-06  1.50000E+01
  2.02686E+01  2.01785E+01  2.02032E+01  1.55797E-01 -1.27128E+00 -4.05836E-03  8.94197E-01 -3.60606E-04  3.30023E-04  1.92243E-04  3.47247E-03 -4.11495E+00 -3.43631E-04  2.85456E-05  3.91372E-05 -1.42189E-06  1.50000E+01
  2.05659E+01  2.04248E+01  1.96920E+01 -2.82614E-01 -6.39656E-01 -2.07127E-01  1.06538E+00 -2.26460E-04  6.38736E-04 -5.81911E-05 -2.65125E-02 -2.00803E+00 -2.66217E-02  3.73390E-05  1.76247E-05  8.43701E-06  1.50000E+01
  2.02573E+01  2.02286E+01  2.00252E+01  1.64213E-01 -1.24241E+00 -4.35530E-04  1.04159E+00 -5.24295E-04  4.91428E-04  3.42947E-05  4.11445E-03 -4.13530E+00  6.77026E-05  2.69075E-05  3.24469E-05 -1.09495E-06  1.50000E+01
  2.02568E+01  2.02289E+01  1.99970E+01  1.64289E-01 -1.24208E+00  2.25007E-04  1.04439E+00 -5.25861E-04  4.91961E-04 -3.48055E-06  4.16927E-03 -4.07135E+00  1.28468E-04  2.63094E-05  3.16040E-05  1.64323E-07  1.50000E+01
  2.03702E+01  2.03509E+01  2.00450E+01  1.36821E-02 -1.04092E+00  7.20900E-03  1.50185E+00 -5.94824E-04  7.59646E-04  5.45921E-05  2.35082E-02 -3.13303E+00 -1.25228E-03  3.39104E-05  3.01726E-05 -3.18555E-06  1.50000E+01
  2.06472E+01  2.04531E+01  1.96434E+01 -3.39478E-01 -5.20957E-01 -2.52309E-01  6.94306E-01 -1.29848E-04  4.92910E-04  3.33389E-06 -2.59373E-02 -1.61226E+00 -2.18853E-02  3.44071E-05  1.20815E-05  3.72848E-06  1.50000E+01
  2.06267E+01  2.04461E+01  1.96554E+01 -3.30073E-01 -5.41472E-01 -2.43411E-01  9.41108E-01 -1.67237E-04  5.89062E-04 -7.85476E-06 -2.72531E-02 -1.68010E+00 -2.39173E-02  3.62232E-05  1.33501E-05  4.64291E-06  1.50000E+01
  2.02528E+01  2.02003E+01  2.01235E+01  1.60868E-01 -1.25490E+00 -2.46963E-03  9.89424E-01 -4.48673E-04  4.16824E-04  1.46026E-04  3.47352E-03 -4.17251E+00 -9.81708E-05  2.81281E-05  3.64764E-05 -2.99354E-06  1.50000E+01
  2.02372E+01  2.01861E+01  2.01091E+01  1.57175E-01 -1.25564E+00 -1.67026E-03  9.79012E-01 -4.33439E-04  4.05253E-04  1.28313E-04  3.00492E-03 -4.14551E+00  1.95823E-05  2.78848E-05  3.57865E-05 -2.63618E-06  1.50000E+01
  2.04011E+01  2.03762E+01  1.99897E+01 -1.36246E-01 -8.36675E-01 -5.31856E-03  1.45895E+00 -6.74065E-04  1.12965E-03 -1.67587E-05  6.32408E-04 -2.57650E+00 -3.10888E-04  3.57686E-05  2.35954E-05  6.26464E-07  1.50000E+01
  2.03848E+01  2.03641E+01  1.99764E+01 -5.57827E-02 -9.51233E-01 -7.93406E-03  1.67315E+00 -7.66505E-04  1.09414E-03 -3.98120E-05  1.58983E-02 -2.93589E+00  1.73615E-04  3.57850E-05  2.78455E-05  1.80570E-06  1.50000E+01
  2.03847E+01  2.03646E+01  2.00038E+01 -5.84009E-02 -9.47863E-01  2.41093E-04  1.64304E+00 -7.65634E-04  1.09810E-03  3.04252E-06  1.55804E-02 -2.90471E+00  4.13728E-05  3.54929E-05  2.74134E-05 -1.76116E-07  1.50000E+01
  2.06497E+01  2.04530E+01  1.96168E+01 -2.90441E-01 -6.54976E-01 -2.59807E-01  7.34006E-01 -1.53618E-04  4.83683E-04 -2.50734E-05 -2.42173E-02 -2.05125E+00 -2.67895E-02  3.60759E-05  1.54458E-05  6.25325E-06  1.50000E+01
  2.03827E+01  2.03333E+01  2.01769E+01  7.95636E-02 -1.12898E+00  1.50390E-02  1.30619E+00 -4.49899E-04  5.07395E-04  1.69257E-04  2.30501E-02 -3.41209E+00 -6.34143E-03  2.96031E-05  3.27707E-05 -6.52691E-06  1.50000E+01
  2.03790E+01  2.03386E+01  2.01508E+01  6.30349E-02 -1.10665E+00  1.59117E-02  1.44752E+00 -4.43941E-04  5.20758E-04  1.42167E-04  2.38326E-02 -3.31564E+00 -5.65457E-03  3.02130E-05  3.19422E-05 -7.15101E-06  1.50000E+01
  2.02338E+01  2.01905E+01  2.00815E+01  1.58165E-01 -1.25288E+00 -1.19522E-03  1.02436E+00 -4.44991E-04  4.17252E-04  9.88473E-05  2.94401E-03 -4.14204E+00  2.21970E-05  2.76211E-05  3.47142E-05 -2.39999E-06  1.50000E+01
  2.02851E+01  2.01910E+01  2.02173E+01  1.59798E-01 -1.27260E+00 -5.19832E-03  9.40719E-01 -3.61383E-04  3.26994E-04  1.99778E-04  3.97421E-03 -4.10102E+00 -5.87905E-04  2.79496E-05  3.84928E-05 -1.10240E-06  1.50000E+01
  2.03016E+01  2.02034E+01  2.02314E+01  1.63129E-01 -1.27352E+00 -6.32085E-03  9.09872E-01 -3.61428E-04  3.23541E-04  2.07048E-04  4.56775E-03 -4.07986E+00 -8.81030E-04  2.72758E-05  3.78377E-05 -1.00965E-06  1.50000E+01
  2.02952E+01  2.02123E+01  2.02059E+01  1.64715E-01 -1.26494E+00 -5.84071E-03  1.00452E+00 -3.91061E-04  3.53397E-04  1.99577E-04  4.78898E-03 -4.06910E+00 -8.48196E-04  2.74054E-05  3.73320E-05 -1.61006E-06  1.50000E+01
  2.00845E+01  1.99704E+01  2.01540E+01  5.40939E-02 -1.23426E+00 -7.52348E-04  4.32601E-01 -8.70599E-05  1.50915E-04  5.93138E-05  1.73369E-03 -3.82339E+00 -3.03711E-04  3.96141E-05  5.07801E-05 -7.84487E-07  1.50000E+01
  2.00738E+01  1.99497E+01  2.01652E+01  4.14950E-02 -1.23026E+00 -6.50278E-04  3.53576E-01  5.38466E-06  8.66138E-05  1.54889E-05  1.46925E-03 -3.78248E+00 -3.19294E-04  4.28717E-05  5.55010E-05 -2.44265E-06  1.50000E+01