 TITLE="3D TRIANGULAR SURFACE DATA"
VARIABLES="X","Y","Z","U","V","W","P", "Fex", "Fey", "Fez","Finx","Finy","Finz","WSSx","WSSy","WSSz","AMForce"
 ZONE T="unstruc"N=        1757 E=        3355 F=FEPOINT  ET=TRIANGLE
  2.04431E+01  2.02283E+01  2.00983E+01  2.48369E-01  8.64052E-01 -1.03559E-02 -4.95373E-01 -6.59354E-05 -1.63133E-04  4.16543E-05  4.81254E-03  3.57639E+00 -1.15143E-03  1.50119E-05 -6.23395E-06  6.30641E-06  1.50000E+01
  2.04627E+01  2.02182E+01  2.00986E+01  2.59779E-01  8.93801E-01 -9.56896E-03 -4.75332E-01 -3.50071E-05 -8.27315E-05  2.06400E-05  3.18320E-03  1.73563E+00  8.57403E-04  7.16661E-06 -3.14942E-06  2.79691E-06  1.50000E+01
  2.04577E+01  2.02166E+01  2.00773E+01  2.62409E-01  8.88884E-01 -7.61743E-03 -4.80252E-01 -4.89925E-05 -1.16052E-04  2.29074E-05  1.14229E-03  2.54980E+00  9.36833E-04  9.58920E-06 -4.38797E-06  3.55664E-06  1.50000E+01
  2.04413E+01  2.02374E+01  2.01295E+01  2.35719E-01  8.56503E-01 -1.32696E-02 -4.85300E-01 -6.23769E-05 -1.53032E-04  5.11694E-05  2.16327E-03  2.98952E+00 -6.40280E-04  1.42411E-05 -5.10423E-06  7.40151E-06  1.50000E+01
  2.04597E+01  2.02250E+01  2.01197E+01  2.50550E-01  8.86457E-01 -1.19647E-02 -4.98536E-01 -5.67855E-05 -1.32259E-04  4.04381E-05  2.06228E-03  2.52539E+00 -1.22287E-03  1.11490E-05 -4.44575E-06  5.22770E-06  1.50000E+01
  2.04765E+01  2.02137E+01  2.01109E+01  2.63897E-01  9.13021E-01 -1.04518E-02 -4.79932E-01 -5.52132E-05 -1.23060E-04  3.40611E-05  2.26910E-03  2.23818E+00  1.82151E-04  9.18752E-06 -3.98444E-06  3.77777E-06  1.50000E+01
  2.04754E+01  2.02089E+01  2.00868E+01  2.70508E-01  9.14246E-01 -8.33308E-03 -4.80459E-01 -4.94623E-05 -1.11678E-04  2.37296E-05  2.62457E-03  2.25534E+00 -5.78265E-04  8.49354E-06 -3.98098E-06  2.88632E-06  1.50000E+01
  2.04548E+01  2.02141E+01  2.00501E+01  2.66193E-01  8.86519E-01 -5.16084E-03 -4.66719E-01 -4.49351E-05 -1.09066E-04  1.47142E-05  2.36922E-03  2.76955E+00 -2.01265E-04  9.25281E-06 -4.46101E-06  2.52255E-06  1.50000E+01
  2.04382E+01  2.02248E+01  2.00666E+01  2.53873E-01  8.60130E-01 -7.35152E-03 -4.87121E-01 -5.39286E-05 -1.33307E-04  2.37727E-05  3.09892E-03  3.02989E+00 -1.06820E-03  1.11216E-05 -4.99184E-06  3.87236E-06  1.50000E+01
  2.04360E+01  2.02224E+01  2.00376E+01  2.57485E-01  8.58633E-01 -4.29550E-03 -4.64948E-01 -3.79694E-05 -9.87273E-05  1.07218E-05  2.84412E-03  2.84310E+00 -4.43373E-04  9.43980E-06 -4.54110E-06  1.99589E-06  1.50000E+01
  2.04594E+01  2.02331E+01  2.01460E+01  2.39171E-01  8.81611E-01 -1.42092E-02 -5.15260E-01 -6.89133E-05 -1.58250E-04  5.83668E-05  1.75803E-03  2.70400E+00 -1.00052E-03  1.29496E-05 -4.54983E-06  6.88739E-06  1.50000E+01
  2.04766E+01  2.02206E+01  2.01354E+01  2.54344E-01  9.09724E-01 -1.27504E-02 -4.96436E-01 -7.17990E-05 -1.57760E-04  5.29521E-05  1.59648E-03  2.57159E+00 -6.46488E-04  1.16666E-05 -4.63752E-06  5.42416E-06  1.50000E+01
  2.04019E+01  2.02486E+01  2.00973E+01  2.25527E-01  8.00050E-01 -1.12641E-02 -4.64114E-01 -4.64212E-05 -1.27261E-04  3.34630E-05  3.01614E-03  2.83871E+00 -5.57071E-04  1.29575E-05 -4.97910E-06  5.59012E-06  1.50000E+01
  2.04004E+01  2.02436E+01  2.00682E+01  2.32870E-01  8.01568E-01 -8.22601E-03 -4.52937E-01 -4.57278E-05 -1.22602E-04  2.29089E-05  3.32169E-03  2.80228E+00 -3.67531E-04  1.11486E-05 -4.68820E-06  4.01341E-06  1.50000E+01
  2.03822E+01  2.02548E+01  2.00824E+01  2.19546E-01  7.71313E-01 -1.01713E-02 -4.05328E-01 -4.41565E-05 -1.23274E-04  2.76606E-05  3.28259E-03  2.63763E+00 -5.01548E-04  1.18945E-05 -4.65449E-06  4.72283E-06  1.50000E+01
  2.04220E+01  2.02424E+01  2.01127E+01  2.31338E-01  8.29249E-01 -1.22581E-02 -4.88788E-01 -5.49181E-05 -1.43872E-04  4.28428E-05  3.22736E-03  3.12307E+00 -6.35211E-04  1.45825E-05 -5.44433E-06  6.92839E-06  1.50000E+01
  2.04032E+01  2.02554E+01  2.01259E+01  2.15470E-01  7.97099E-01 -1.39663E-02 -4.61504E-01 -5.29540E-05 -1.41898E-04  4.83061E-05  2.73693E-03  2.75498E+00 -6.84417E-04  1.43104E-05 -4.67231E-06  7.79376E-06  1.50000E+01
  2.04228E+01  2.02505E+01  2.01415E+01  2.19609E-01  8.24936E-01 -1.47497E-02 -5.01566E-01 -6.33319E-05 -1.58258E-04  5.91198E-05  2.39667E-03  2.81107E+00 -5.91541E-04  1.46833E-05 -4.58205E-06  8.54851E-06  1.50000E+01
  2.04205E+01  2.02364E+01  2.00829E+01  2.40146E-01  8.31180E-01 -9.35113E-03 -4.56408E-01 -5.18922E-05 -1.35518E-04  3.00633E-05  3.35847E-03  3.14290E+00 -3.97483E-04  1.27787E-05 -5.33849E-06  5.04088E-06  1.50000E+01
  2.04184E+01  2.02327E+01  2.00532E+01  2.45574E-01  8.30801E-01 -6.28378E-03 -4.48819E-01 -4.42359E-05 -1.15004E-04  1.70059E-05  3.02371E-03  2.87994E+00 -4.35164E-04  1.02610E-05 -4.63716E-06  2.93240E-06  1.50000E+01
  2.04922E+01  2.02025E+01  2.00991E+01  2.76971E-01  9.37790E-01 -9.09536E-03 -4.78306E-01 -6.64472E-05 -1.43879E-04  3.45670E-05  2.04859E-03  2.53579E+00 -3.61996E-04  9.90445E-06 -4.60840E-06  3.49067E-06  1.50000E+01
  2.04908E+01  2.01982E+01  2.00734E+01  2.82785E-01  9.38246E-01 -6.81644E-03 -4.70990E-01 -6.01048E-05 -1.32250E-04  2.37326E-05  2.43906E-03  2.63014E+00 -4.42516E-04  9.35851E-06 -4.58097E-06  2.88752E-06  1.50000E+01
  2.04932E+01  2.02082E+01  2.01244E+01  2.69003E-01  9.36320E-01 -1.12145E-02 -4.94448E-01 -7.53093E-05 -1.61082E-04  4.85812E-05  2.14489E-03  2.60204E+00 -1.17697E-04  1.09891E-05 -4.78844E-06  4.40040E-06  1.50000E+01
  2.04731E+01  2.02060E+01  2.00616E+01  2.74620E-01  9.13042E-01 -5.89388E-03 -4.84661E-01 -5.20305E-05 -1.18623E-04  1.85585E-05  1.43081E-03  2.62061E+00  1.10281E-04  8.97472E-06 -4.38687E-06  2.73291E-06  1.50000E+01
  2.04894E+01  2.01955E+01  2.00469E+01  2.86656E-01  9.37977E-01 -4.26525E-03 -4.38763E-01 -4.93680E-05 -1.12528E-04  1.34387E-05  2.17695E-03  2.77265E+00  5.33039E-06  8.98978E-06 -4.61298E-06  2.04814E-06  1.50000E+01
  2.04172E+01  2.02307E+01  2.00242E+01  2.48621E-01  8.30364E-01 -3.06532E-03 -4.03706E-01 -2.16926E-05 -6.67032E-05  5.47943E-06  3.20380E-03  2.76863E+00 -2.94790E-04  9.05005E-06 -4.32844E-06  1.30499E-06  1.50000E+01
  2.04533E+01  2.02125E+01  2.00220E+01  2.68649E-01  8.85424E-01 -2.32099E-03 -4.23288E-01 -2.70469E-05 -7.38283E-05  5.15148E-06  2.85127E-03  2.81133E+00 -1.60210E-04  8.71298E-06 -4.38561E-06  1.23041E-06  1.50000E+01
  2.04350E+01  2.02213E+01  2.00089E+01  2.59179E-01  8.57863E-01 -1.15745E-03 -4.34961E-01 -1.94756E-05 -6.06512E-05  1.98843E-06  3.15873E-03  2.78650E+00 -1.86939E-04  8.77674E-06 -4.34708E-06  5.43985E-07  1.50000E+01
  2.04047E+01  2.02637E+01  2.01535E+01  2.03190E-01  7.93122E-01 -1.62129E-02 -5.46261E-01 -6.79487E-05 -1.70614E-04  6.94197E-05  2.50541E-03  2.63317E+00 -7.27217E-04  1.49253E-05 -3.98288E-06  9.39649E-06  1.50000E+01
  2.04241E+01  2.02596E+01  2.01687E+01  2.06423E-01  8.20643E-01 -1.67683E-02 -5.52662E-01 -7.65918E-05 -1.82025E-04  7.94313E-05  2.38020E-03  2.66768E+00 -7.61503E-04  1.48333E-05 -3.72832E-06  9.71028E-06  1.50000E+01
  2.07826E+01  2.01295E+01  1.96665E+01  3.55209E-01  1.35048E+00  2.16093E-02 -7.76922E-01 -1.43891E-04 -2.90054E-04 -1.86387E-04  2.11657E-03  4.25029E+00 -4.42973E-04  2.61541E-05 -1.61679E-05  4.81768E-08  1.50000E+01
  2.07637E+01  2.01312E+01  1.96818E+01  3.51505E-01  1.32189E+00  1.89969E-02 -8.16004E-01 -1.53708E-04 -2.94538E-04 -1.81677E-04  1.93182E-03  4.15669E+00 -4.14712E-04  2.50155E-05 -1.56095E-05 -4.81969E-07  1.50000E+01
  2.07785E+01  2.01146E+01  1.96932E+01  3.74192E-01  1.34574E+00  2.00222E-02 -7.61250E-01 -1.45106E-04 -2.91653E-04 -1.68736E-04  2.10094E-03  4.23144E+00 -4.17243E-04  2.52045E-05 -1.62573E-05  1.10348E-06  1.50000E+01
  2.07599E+01  2.01170E+01  1.97087E+01  3.69709E-01  1.31772E+00  1.76201E-02 -7.81159E-01 -1.55108E-04 -2.97047E-04 -1.64487E-04  1.94608E-03  4.14053E+00 -3.79857E-04  2.42256E-05 -1.55546E-05  3.39597E-07  1.50000E+01
  2.07748E+01  2.01009E+01  1.97205E+01  3.91671E-01  1.34137E+00  1.83231E-02 -7.36890E-01 -1.43984E-04 -2.89164E-04 -1.49918E-04  2.08999E-03  4.21424E+00 -3.90035E-04  2.47522E-05 -1.61641E-05  1.60105E-06  1.50000E+01
  2.08407E+01  2.01290E+01  1.96218E+01  3.63294E-01  1.44105E+00  3.35244E-02 -4.99276E-01 -4.47713E-05 -1.66886E-04 -1.14964E-04  2.92898E-03  4.54592E+00  1.14182E-04  3.32221E-05 -1.93326E-05  2.49641E-06  1.50000E+01
  2.08211E+01  2.01283E+01  1.96364E+01  3.61333E-01  1.41016E+00  2.89123E-02 -6.50569E-01 -9.83427E-05 -2.44602E-04 -1.68958E-04  2.69095E-03  4.44540E+00 -1.53366E-04  2.97905E-05 -1.80820E-05  1.90607E-06  1.50000E+01
  2.08358E+01  2.01120E+01  1.96476E+01  3.85108E-01  1.43451E+00  3.10910E-02 -4.35216E-01 -4.74207E-05 -1.68978E-04 -1.04346E-04  2.87077E-03  4.52345E+00  1.05100E-05  3.27742E-05 -1.99729E-05  3.34073E-06  1.50000E+01
  2.04944E+01  2.02155E+01  2.01499E+01  2.58908E-01  9.34387E-01 -1.33019E-02 -5.08024E-01 -8.20318E-05 -1.74502E-04  6.32333E-05  2.12630E-03  2.72380E+00 -5.39471E-04  1.24721E-05 -4.95312E-06  5.72469E-06  1.50000E+01
  2.08313E+01  2.00960E+01  1.96740E+01  4.05348E-01  1.42834E+00  2.85132E-02 -4.56505E-01 -6.55744E-05 -1.92141E-04 -1.10548E-04  2.84651E-03  4.50226E+00 -5.32614E-05  2.93916E-05 -1.85949E-05  3.85132E-06  1.50000E+01
  2.08506E+01  2.00960E+01  1.96590E+01  4.08537E-01  1.45854E+00  3.30172E-02 -1.64995E-01 -7.88705E-06 -9.83129E-05 -4.88324E-05  3.01237E-03  4.60093E+00  1.19982E-04  3.15629E-05 -1.97815E-05  5.10637E-06  1.50000E+01
  2.05063E+01  2.01851E+01  2.00325E+01  2.98379E-01  9.63106E-01 -2.71445E-03 -4.53373E-01 -6.06166E-05 -1.30932E-04  1.02369E-05  2.61267E-03  2.88053E+00  2.96592E-05  8.73449E-06 -4.65487E-06  1.35774E-06  1.50000E+01
  2.04886E+01  2.01940E+01  2.00196E+01  2.88950E-01  9.37663E-01 -1.62285E-03 -4.17277E-01 -3.98514E-05 -9.45235E-05  4.93122E-06  2.68189E-03  2.84688E+00  9.77053E-05  8.57334E-06 -4.53799E-06  9.65482E-07  1.50000E+01
  2.04418E+01  2.02462E+01  2.01572E+01  2.23160E-01  8.51716E-01 -1.54914E-02 -5.57486E-01 -7.26247E-05 -1.70849E-04  6.87592E-05  2.08056E-03  2.75289E+00 -7.20532E-04  1.42534E-05 -4.34961E-06  8.39468E-06  1.50000E+01
  2.04434E+01  2.02557E+01  2.01836E+01  2.09456E-01  8.47770E-01 -1.72297E-02 -5.65066E-01 -8.03612E-05 -1.83968E-04  8.61961E-05  2.54475E-03  2.68343E+00 -8.73852E-04  1.47572E-05 -3.59052E-06  9.73917E-06  1.50000E+01
  2.04606E+01  2.02420E+01  2.01723E+01  2.26559E-01  8.77983E-01 -1.60706E-02 -5.61443E-01 -7.72299E-05 -1.74084E-04  7.52585E-05  2.30663E-03  2.71683E+00 -8.93902E-04  1.40343E-05 -4.17649E-06  8.37692E-06  1.50000E+01
  2.04166E+01  2.02303E+01  1.99956E+01  2.49332E-01  8.29775E-01  2.41044E-04 -3.89844E-01 -1.18208E-05 -4.55828E-05 -7.20952E-07  3.28360E-03  2.70713E+00 -1.14240E-04  8.59597E-06 -4.17307E-06 -1.77005E-07  1.50000E+01
  2.04528E+01  2.02123E+01  1.99938E+01  2.69175E-01  8.84682E-01  6.65038E-04 -4.12971E-01 -2.11725E-05 -6.20538E-05 -1.29500E-06  3.18874E-03  2.80486E+00 -1.09337E-05  8.47026E-06 -4.30084E-06 -3.47886E-07  1.50000E+01
  2.04347E+01  2.02218E+01  1.99806E+01  2.58655E-01  8.57037E-01  2.01666E-03 -4.45941E-01 -2.47109E-05 -7.07348E-05 -4.15739E-06  3.26356E-03  2.74748E+00  8.22526E-07  8.64276E-06 -4.26275E-06 -9.09598E-07  1.50000E+01
  2.07866E+01  2.00732E+01  1.97609E+01  4.28620E-01  1.36089E+00  1.69817E-02 -7.01468E-01 -1.23302E-04 -2.65172E-04 -1.12612E-04  2.24301E-03  4.27238E+00 -3.30837E-04  2.61671E-05 -1.68186E-05  2.47413E-06  1.50000E+01
  2.08049E+01  2.00701E+01  1.97449E+01  4.35037E-01  1.38874E+00  1.97969E-02 -6.89609E-01 -9.17480E-05 -2.23887E-04 -9.86018E-05  2.47234E-03  4.36678E+00 -2.79020E-04  2.86797E-05 -1.82603E-05  3.25825E-06  1.50000E+01
  2.07898E+01  2.00853E+01  1.97326E+01  4.13462E-01  1.36504E+00  1.90733E-02 -7.30658E-01 -1.20865E-04 -2.62121E-04 -1.26098E-04  2.26347E-03  4.28920E+00 -3.54574E-04  2.66620E-05 -1.72759E-05  2.49277E-06  1.50000E+01
  2.05096E+01  2.01960E+01  2.01123E+01  2.83354E-01  9.62192E-01 -9.80025E-03 -4.91808E-01 -8.00514E-05 -1.68438E-04  4.47790E-05  2.38213E-03  2.75829E+00 -3.00995E-04  1.11493E-05 -5.18467E-06  3.90409E-06  1.50000E+01
  2.01407E+01  2.03846E+01  2.01902E+01  3.38889E-02  2.90822E-01 -1.39524E-02 -5.11644E-01 -3.17291E-05 -2.24158E-04  1.09087E-04  3.62941E-03  9.25937E-01 -5.80141E-03  3.29786E-05 -5.84028E-06  8.18097E-06  1.50000E+01
  2.01217E+01  2.03950E+01  2.02012E+01  1.28319E-02  2.32905E-01 -8.24021E-03 -6.45993E-01 -1.89096E-05 -2.61752E-04  1.25792E-04  2.18988E-03  7.44077E-01 -5.62263E-03  4.88735E-05 -9.30684E-06  7.30202E-06  1.50000E+01
  2.01424E+01  2.03956E+01  2.02141E+01  1.15546E-02  2.65330E-01 -8.20704E-03 -7.03657E-01 -3.91631E-05 -3.06229E-04  1.57612E-04  2.44905E-03  8.46499E-01 -5.20626E-03  4.65143E-05 -9.10893E-06  7.91734E-06  1.50000E+01
  2.08421E+01  2.00661E+01  1.97133E+01  4.46259E-01  1.44628E+00  2.69428E-02 -6.00872E-01 -2.89703E-06 -8.99556E-05 -3.41592E-05  2.98705E-03  4.55926E+00 -4.99035E-05  3.57742E-05 -2.25990E-05  6.45650E-06  1.50000E+01
  2.08612E+01  2.00654E+01  1.96978E+01  4.50687E-01  1.47568E+00  3.11716E-02 -1.59203E-01 -5.51166E-06 -6.11752E-05 -2.58656E-05  2.86120E-02  2.38009E+00  5.44546E-03  1.90912E-05 -1.20304E-05  3.86356E-06  1.50000E+01
  2.08462E+01  2.00805E+01  1.96858E+01  4.28233E-01  1.45219E+00  3.00092E-02 -4.31082E-01 -3.49143E-05 -1.50126E-04 -7.49099E-05  3.03127E-03  4.57956E+00  5.71721E-05  3.21282E-05 -2.05460E-05  5.94317E-06  1.50000E+01
  2.07934E+01  2.00985E+01  1.97049E+01  3.96700E-01  1.36961E+00  2.11101E-02 -7.10265E-01 -1.25576E-04 -2.71597E-04 -1.46907E-04  2.28389E-03  4.30693E+00 -3.65816E-04  2.66532E-05 -1.73414E-05  2.38529E-06  1.50000E+01
  2.08084E+01  2.00829E+01  1.97169E+01  4.18989E-01  1.39348E+00  2.21798E-02 -7.25532E-01 -9.47561E-05 -2.29658E-04 -1.14755E-04  2.51220E-03  4.38443E+00 -2.71733E-04  2.85599E-05 -1.83497E-05  3.29773E-06  1.50000E+01
  2.04165E+01  2.02315E+01  1.99674E+01  2.47667E-01  8.28780E-01  3.54623E-03 -4.20984E-01 -2.61911E-05 -7.56277E-05 -7.33672E-06  3.19002E-03  2.66685E+00  7.90057E-05  8.91592E-06 -4.20623E-06 -1.61386E-06  1.50000E+01
  2.03992E+01  2.02406E+01  2.00392E+01  2.37452E-01  8.02023E-01 -4.99480E-03 -4.26846E-01 -3.30337E-05 -9.33202E-05  1.08616E-05  3.31407E-03  2.71748E+00 -3.27521E-04  9.68908E-06 -4.42299E-06  2.06884E-06  1.50000E+01
  2.03984E+01  2.02392E+01  2.00105E+01  2.39504E-01  8.01925E-01 -1.61165E-03 -4.00976E-01 -1.34535E-05 -5.09251E-05  2.05937E-06  3.33761E-03  2.65432E+00 -1.95298E-04  8.93581E-06 -4.22194E-06  5.65560E-07  1.50000E+01
  2.08261E+01  2.01456E+01  1.96110E+01  3.39067E-01  1.41648E+00  3.08837E-02 -6.95227E-01 -1.05291E-04 -2.61689E-04 -1.99553E-04  2.79276E-03  4.46748E+00 -5.90120E-05  2.96668E-05 -1.73644E-05  1.40175E-06  1.50000E+01
  2.07565E+01  2.01039E+01  1.97363E+01  3.86405E-01  1.31390E+00  1.61237E-02 -7.47707E-01 -1.54069E-04 -2.95612E-04 -1.46252E-04  1.94809E-03  4.12353E+00 -3.46120E-04  2.38310E-05 -1.53871E-05  7.15747E-07  1.50000E+01
  2.07715E+01  2.00883E+01  1.97484E+01  4.07593E-01  1.33736E+00  1.65358E-02 -7.36868E-01 -1.41330E-04 -2.84511E-04 -1.30848E-04  2.06064E-03  4.19696E+00 -3.61649E-04  2.44262E-05 -1.58048E-05  1.58608E-06  1.50000E+01
  2.03810E+01  2.02507E+01  2.00538E+01  2.25684E-01  7.72820E-01 -6.94625E-03 -3.97307E-01 -4.07735E-05 -1.12347E-04  1.69651E-05  3.49474E-03  2.61529E+00 -3.54087E-04  1.01779E-05 -4.35221E-06  2.89758E-06  1.50000E+01
  2.03619E+01  2.02580E+01  2.00396E+01  2.18261E-01  7.44245E-01 -5.49204E-03 -3.54953E-01 -3.39841E-05 -9.97696E-05  1.16030E-05  3.60667E-03  2.47110E+00 -3.06823E-04  9.56807E-06 -4.13341E-06  2.04389E-06  1.50000E+01
  2.03628E+01  2.02612E+01  2.00679E+01  2.13344E-01  7.42823E-01 -8.93728E-03 -3.89398E-01 -4.57300E-05 -1.29180E-04  2.42460E-05  3.57048E-03  2.48624E+00 -4.79701E-04  1.11500E-05 -4.43998E-06  3.81891E-06  1.50000E+01
  2.05084E+01  2.01909E+01  2.00861E+01  2.90281E-01  9.62913E-01 -7.62864E-03 -4.57519E-01 -7.43088E-05 -1.57455E-04  3.21437E-05  2.41595E-03  2.76418E+00 -3.02950E-04  1.01467E-05 -5.00007E-06  3.02330E-06  1.50000E+01
  2.05072E+01  2.01873E+01  2.00595E+01  2.95276E-01  9.63168E-01 -5.26339E-03 -4.96587E-01 -6.61431E-05 -1.41840E-04  2.03359E-05  2.63498E-03  2.82220E+00 -2.48486E-04  9.31579E-06 -4.79935E-06  2.25998E-06  1.50000E+01
  2.05233E+01  2.01750E+01  2.00182E+01  3.09657E-01  9.88026E-01 -1.28432E-03 -3.86888E-01 -8.20959E-05 -1.67901E-04  7.02282E-06  2.73406E-03  2.97097E+00  5.01340E-05  8.90512E-06 -4.88922E-06  7.70525E-07  1.50000E+01
  2.05058E+01  2.01843E+01  2.00051E+01  2.99648E-01  9.62884E-01 -1.16360E-04 -4.28135E-01 -6.00160E-05 -1.29277E-04  1.40212E-06  2.81314E-03  2.91722E+00  1.45672E-04  8.37406E-06 -4.54623E-06  1.73540E-07  1.50000E+01
  2.08122E+01  2.00969E+01  1.96894E+01  4.01330E-01  1.39864E+00  2.45158E-02 -6.16979E-01 -1.01806E-04 -2.43926E-04 -1.37442E-04  2.55781E-03  4.40380E+00 -2.48329E-04  2.82810E-05 -1.82761E-05  3.26084E-06  1.50000E+01
  2.08165E+01  2.01120E+01  1.96626E+01  3.82100E-01  1.40421E+00  2.67737E-02 -6.13002E-01 -1.02453E-04 -2.49817E-04 -1.56241E-04  2.62874E-03  4.42471E+00 -2.06706E-04  2.96269E-05 -1.86254E-05  2.63049E-06  1.50000E+01
  2.07451E+01  2.01335E+01  1.96972E+01  3.47603E-01  1.29410E+00  1.70137E-02 -8.14248E-01 -1.59471E-04 -2.95688E-04 -1.74463E-04  1.86089E-03  4.06678E+00 -3.18882E-04  2.37189E-05 -1.47001E-05 -1.11628E-06  1.50000E+01
  2.03851E+01  2.02680E+01  2.01385E+01  1.99653E-01  7.65169E-01 -1.55886E-02 -4.95181E-01 -5.66191E-05 -1.52981E-04  5.71947E-05  2.86478E-03  2.55450E+00 -7.87887E-04  1.47858E-05 -4.33946E-06  8.31952E-06  1.50000E+01
  2.03672E+01  2.02807E+01  2.01508E+01  1.83461E-01  7.32590E-01 -1.71041E-02 -5.08970E-01 -6.23890E-05 -1.69564E-04  6.89842E-05  2.96824E-03  2.41232E+00 -9.83793E-04  1.56173E-05 -4.05104E-06  8.97763E-06  1.50000E+01
  2.03869E+01  2.02768E+01  2.01655E+01  1.86405E-01  7.60709E-01 -1.75804E-02 -5.33372E-01 -7.29700E-05 -1.84699E-04  8.12786E-05  2.75690E-03  2.49544E+00 -9.31211E-04  1.53023E-05 -3.36427E-06  1.02849E-05  1.50000E+01
  2.08271E+01  2.00813E+01  1.97012E+01  4.23983E-01  1.42258E+00  2.58452E-02 -6.15975E-01 -6.31040E-05 -1.86507E-04 -9.54467E-05  2.79584E-03  4.48181E+00 -1.17550E-04  2.98674E-05 -1.90086E-05  4.21004E-06  1.50000E+01
  2.07679E+01  2.01465E+01  1.96554E+01  3.31851E-01  1.32639E+00  2.02324E-02 -8.59769E-01 -1.64417E-04 -3.11005E-04 -2.12245E-04  1.95340E-03  4.17450E+00 -4.33952E-04  2.55835E-05 -1.53645E-05 -1.34703E-06  1.50000E+01
  2.07490E+01  2.01481E+01  1.96706E+01  3.28669E-01  1.29804E+00  1.80868E-02 -8.55944E-01 -1.68876E-04 -3.08891E-04 -2.01906E-04  1.83884E-03  4.08202E+00 -3.41995E-04  2.47011E-05 -1.48656E-05 -1.86237E-06  1.50000E+01
  2.04626E+01  2.02520E+01  2.01982E+01  2.12358E-01  8.74661E-01 -1.75173E-02 -5.70609E-01 -8.37010E-05 -1.85956E-04  9.26520E-05  2.82481E-03  2.72243E+00 -9.55203E-04  1.51168E-05 -3.63665E-06  9.91113E-06  1.50000E+01
  2.04794E+01  2.02379E+01  2.01870E+01  2.29970E-01  9.04190E-01 -1.63913E-02 -5.46437E-01 -8.19434E-05 -1.78604E-04  8.28048E-05  2.68375E-03  2.76087E+00 -8.80810E-04  1.44015E-05 -4.29505E-06  8.47682E-06  1.50000E+01
  2.04455E+01  2.02664E+01  2.02094E+01  1.94079E-01  8.43792E-01 -1.84667E-02 -5.95394E-01 -9.02706E-05 -2.02190E-04  1.07598E-04  2.79276E-03  2.66584E+00 -1.02710E-03  1.58412E-05 -3.11191E-06  1.08953E-05  1.50000E+01
  2.04527E+01  2.02136E+01  1.99658E+01  2.67491E-01  8.83744E-01  3.66606E-03 -4.42899E-01 -3.45758E-05 -8.91634E-05 -8.54672E-06  3.26042E-03  2.79015E+00  1.41523E-04  8.87013E-06 -4.37993E-06 -1.72829E-06  1.50000E+01
  2.08017E+01  2.01285E+01  1.96513E+01  3.58557E-01  1.37993E+00  2.49148E-02 -7.21482E-01 -1.28909E-04 -2.80135E-04 -1.87357E-04  2.38950E-03  4.34720E+00 -3.54551E-04  2.79618E-05 -1.73029E-05  1.07470E-06  1.50000E+01
  2.08064E+01  2.01451E+01  1.96255E+01  3.37261E-01  1.38564E+00  2.66171E-02 -7.51596E-01 -1.34948E-04 -2.93114E-04 -2.16383E-04  2.46936E-03  4.36711E+00 -3.14186E-04  2.80963E-05 -1.67489E-05  4.52149E-07  1.50000E+01
  2.07870E+01  2.01454E+01  1.96403E+01  3.34777E-01  1.35559E+00  2.30594E-02 -8.39620E-01 -1.55260E-04 -3.08802E-04 -2.19949E-04  2.17599E-03  4.26996E+00 -4.32889E-04  2.68280E-05 -1.59555E-05 -7.29816E-07  1.50000E+01
  2.07303E+01  2.01503E+01  1.96859E+01  3.25348E-01  1.27041E+00  1.65250E-02 -8.84558E-01 -1.70204E-04 -3.05005E-04 -1.91284E-04  1.83158E-03  3.99313E+00 -2.09306E-04  2.34048E-05 -1.38436E-05 -2.53300E-06  1.50000E+01
  2.05274E+01  2.01896E+01  2.01260E+01  2.89604E-01  9.87114E-01 -1.04161E-02 -5.53875E-01 -8.96699E-05 -1.84626E-04  5.38638E-05  2.70090E-03  2.90641E+00 -3.11182E-04  1.19762E-05 -5.59157E-06  4.18243E-06  1.50000E+01
  2.05110E+01  2.02025E+01  2.01383E+01  2.74461E-01  9.61078E-01 -1.18185E-02 -5.41522E-01 -8.66939E-05 -1.80856E-04  5.92482E-05  2.58803E-03  2.80273E+00 -2.66872E-04  1.21473E-05 -5.24552E-06  4.99787E-06  1.50000E+01
  2.03836E+01  2.02606E+01  2.01108E+01  2.10802E-01  7.68771E-01 -1.30885E-02 -4.53865E-01 -4.60712E-05 -1.30442E-04  3.95192E-05  3.08362E-03  2.61447E+00 -6.39136E-04  1.36912E-05 -4.75999E-06  6.46735E-06  1.50000E+01
  2.03640E+01  2.02661E+01  2.00960E+01  2.05796E-01  7.40409E-01 -1.20922E-02 -4.04976E-01 -4.94467E-05 -1.39947E-04  3.65398E-05  3.36476E-03  2.48075E+00 -6.40179E-04  1.28885E-05 -4.68313E-06  5.33195E-06  1.50000E+01
  2.01232E+01  2.04061E+01  2.02248E+01 -1.05020E-02  2.02006E-01  0.00000E+00 -3.92931E-01 -5.99548E-06 -1.40500E-04  6.99858E-05  8.47667E-01 -9.27045E+00 -1.80533E+01  2.93930E-05 -6.16558E-06  2.65466E-06  1.50000E+01
  2.08703E+01  2.00969E+01  1.96442E+01  4.10744E-01  1.48905E+00  3.79280E-02  5.73539E-02  1.89279E-05 -7.10240E-06  6.02719E-06  2.74274E-02  2.40368E+00  7.09213E-03  1.68528E-05 -1.01914E-05  2.61041E-06  1.50000E+01
  2.08555E+01  2.01127E+01  1.96329E+01  3.87194E-01  1.46527E+00  3.59081E-02 -1.42908E-02  1.97110E-05 -5.57269E-05 -1.99534E-05  3.00329E-03  4.62361E+00  2.04817E-04  3.59435E-05 -2.19127E-05  5.01749E-06  1.50000E+01
  2.07533E+01  2.01638E+01  1.96446E+01  3.08335E-01  1.30228E+00  1.89910E-02 -9.04687E-01 -1.80193E-04 -3.25327E-04 -2.33583E-04  1.84565E-03  4.09897E+00 -3.58596E-04  2.51877E-05 -1.45248E-05 -2.71798E-06  1.50000E+01
  2.07343E+01  2.01654E+01  1.96596E+01  3.05682E-01  1.27409E+00  1.73117E-02 -8.97003E-01 -1.78509E-04 -3.16057E-04 -2.18047E-04  1.79418E-03  4.00745E+00 -2.26620E-04  2.44172E-05 -1.39995E-05 -3.24491E-06  1.50000E+01
  2.03982E+01  2.02395E+01  1.99822E+01  2.39078E-01  8.01271E-01  1.83354E-03 -4.02278E-01 -1.58542E-05 -5.55379E-05 -3.32157E-06  3.25329E-03  2.60673E+00 -4.91510E-06  8.79005E-06 -4.14362E-06 -9.01411E-07  1.50000E+01
  2.05126E+01  2.02103E+01  2.01642E+01  2.63590E-01  9.59755E-01 -1.36889E-02 -5.22614E-01 -9.09377E-05 -1.88689E-04  7.33556E-05  2.52178E-03  2.85378E+00 -4.96251E-04  1.32612E-05 -5.30320E-06  5.93341E-06  1.50000E+01
  2.04065E+01  2.02732E+01  2.01802E+01  1.89126E-01  7.88624E-01 -1.79674E-02 -5.66857E-01 -8.03070E-05 -1.93576E-04  9.12379E-05  2.62919E-03  2.56029E+00 -9.10503E-04  1.53326E-05 -3.00393E-06  1.09701E-05  1.50000E+01
  2.04261E+01  2.02697E+01  2.01949E+01  1.91677E-01  8.16301E-01 -1.82773E-02 -6.05418E-01 -8.46108E-05 -1.96708E-04  9.89150E-05  2.64500E-03  2.61232E+00 -9.66047E-04  1.55901E-05 -2.92007E-06  1.12247E-05  1.50000E+01
  2.01595E+01  2.03738E+01  2.01790E+01  5.39415E-02  3.41935E-01 -1.71901E-02 -3.80357E-01 -2.41917E-05 -1.70444E-04  7.97600E-05  3.80137E-03  1.08633E+00 -4.55384E-03  2.83111E-05 -5.78812E-06  7.08191E-06  1.50000E+01
  2.01391E+01  2.03746E+01  2.01659E+01  5.38938E-02  3.11209E-01 -1.67564E-02 -3.84963E-01 -1.64432E-05 -1.57919E-04  6.78877E-05  4.08954E-03  9.85680E-01 -4.88447E-03  2.96635E-05 -6.59832E-06  5.64585E-06  1.50000E+01
  2.08115E+01  2.01627E+01  1.96003E+01  3.14540E-01  1.39170E+00  2.81321E-02 -7.82727E-01 -1.44412E-04 -3.15375E-04 -2.55667E-04  2.58797E-03  4.38867E+00 -2.39678E-04  2.92861E-05 -1.66255E-05 -2.03792E-07  1.50000E+01
  2.03429E+01  2.02654E+01  2.00257E+01  2.10478E-01  7.15483E-01 -3.85947E-03 -2.98867E-01 -4.07738E-05 -1.17080E-04  8.57231E-06  3.62659E-03  2.34585E+00 -2.18077E-04  9.15219E-06 -3.92500E-06  1.35020E-06  1.50000E+01
  2.03435E+01  2.02677E+01  2.00537E+01  2.06790E-01  7.14275E-01 -7.52839E-03 -3.78613E-01 -4.38456E-05 -1.26004E-04  1.86327E-05  3.66148E-03  2.35637E+00 -4.38075E-04  1.03171E-05 -4.18506E-06  2.68328E-06  1.50000E+01
  2.05260E+01  2.01838E+01  2.00995E+01  2.97486E-01  9.87710E-01 -8.37221E-03 -5.18073E-01 -8.34828E-05 -1.73395E-04  4.00727E-05  2.64742E-03  2.89648E+00 -2.77249E-04  1.09905E-05 -5.41492E-06  3.36274E-06  1.50000E+01
  2.05249E+01  2.01795E+01  2.00727E+01  3.03454E-01  9.88042E-01 -6.15321E-03 -4.93017E-01 -7.52685E-05 -1.58300E-04  2.69917E-05  2.66415E-03  2.91051E+00 -2.11255E-04  1.02330E-05 -5.27753E-06  2.55406E-06  1.50000E+01
  2.03691E+01  2.02901E+01  2.01773E+01  1.69068E-01  7.27304E-01 -1.87640E-02 -5.32805E-01 -7.38633E-05 -1.91404E-04  9.08440E-05  2.77633E-03  2.37344E+00 -1.11319E-03  1.60070E-05 -2.80511E-06  1.12760E-05  1.50000E+01
  2.03514E+01  2.03036E+01  2.01891E+01  1.51136E-01  6.92734E-01 -1.96849E-02 -5.35542E-01 -7.23281E-05 -1.93867E-04  9.85731E-05  2.76670E-03  2.24953E+00 -1.30802E-03  1.68434E-05 -2.35787E-06  1.19694E-05  1.50000E+01
  2.03713E+01  2.03008E+01  2.02033E+01  1.52740E-01  7.21213E-01 -1.97661E-02 -5.85642E-01 -8.25950E-05 -2.08714E-04  1.12579E-04  2.64628E-03  2.33682E+00 -1.25303E-03  1.71637E-05 -2.17640E-06  1.24809E-05  1.50000E+01
  2.07155E+01  2.01675E+01  1.96748E+01  3.02922E-01  1.24653E+00  1.61496E-02 -8.81882E-01 -1.76965E-04 -3.10079E-04 -2.05626E-04  1.83095E-03  3.91908E+00 -7.77402E-05  2.34906E-05 -1.33577E-05 -3.57321E-06  1.50000E+01
  2.03802E+01  2.02484E+01  2.00252E+01  2.29159E-01  7.73440E-01 -3.51883E-03 -4.01307E-01 -2.22301E-05 -7.02880E-05  5.93268E-06  3.49004E-03  2.57471E+00 -2.35432E-04  9.00385E-06 -4.09658E-06  1.33054E-06  1.50000E+01
  2.03798E+01  2.02478E+01  1.99969E+01  2.30042E-01  7.73278E-01  2.83173E-05 -3.87744E-01 -1.10095E-05 -4.53916E-05 -4.22226E-07  3.35901E-03  2.53507E+00 -6.76659E-05  8.57308E-06 -3.97195E-06 -1.62851E-07  1.50000E+01
  2.05239E+01  2.01765E+01  2.00456E+01  3.07518E-01  9.88129E-01 -3.77380E-03 -4.21767E-01 -7.46699E-05 -1.55819E-04  1.65192E-05  2.75426E-03  2.94064E+00 -1.17345E-04  9.48189E-06 -5.07642E-06  1.76541E-06  1.50000E+01
  2.07918E+01  2.01623E+01  1.96148E+01  3.12941E-01  1.36104E+00  2.43391E-02 -8.26897E-01 -1.65524E-04 -3.29061E-04 -2.56395E-04  2.24790E-03  4.28907E+00 -4.07053E-04  2.78823E-05 -1.60085E-05 -1.21508E-06  1.50000E+01
  2.07724E+01  2.01628E+01  1.96296E+01  3.10803E-01  1.33124E+00  2.13039E-02 -8.85654E-01 -1.77225E-04 -3.31090E-04 -2.47700E-04  2.00340E-03  4.19313E+00 -4.31117E-04  2.61495E-05 -1.51025E-05 -2.01954E-06  1.50000E+01
  2.03655E+01  2.02727E+01  2.01237E+01  1.95768E-01  7.36991E-01 -1.48493E-02 -4.10143E-01 -4.95915E-05 -1.42864E-04  4.81828E-05  3.15484E-03  2.45212E+00 -8.07697E-04  1.47640E-05 -4.70766E-06  7.19907E-06  1.50000E+01
  2.03459E+01  2.02775E+01  2.01091E+01  1.91539E-01  7.08687E-01 -1.39655E-02 -3.56577E-01 -5.18351E-05 -1.50807E-04  4.48992E-05  3.34764E-03  2.34175E+00 -8.37419E-04  1.43109E-05 -4.65189E-06  6.56786E-06  1.50000E+01
  2.05574E+01  2.01556E+01  1.99895E+01  3.30938E-01  1.03717E+00  1.18475E-03 -5.20584E-01 -1.00016E-04 -1.97573E-04 -5.02114E-06  2.73002E-03  3.15090E+00  6.33972E-05  9.59051E-06 -5.42054E-06 -4.41798E-07  1.50000E+01
  2.05403E+01  2.01658E+01  1.99760E+01  3.19669E-01  1.01249E+00  2.41048E-03 -4.65529E-01 -9.23794E-05 -1.85686E-04 -1.06580E-05  2.76234E-03  3.08357E+00  1.40880E-04  9.58056E-06 -5.31221E-06 -1.06603E-06  1.50000E+01
  2.05403E+01  2.01652E+01  2.00039E+01  3.20495E-01  1.01270E+00  1.22121E-05 -4.61460E-01 -9.36550E-05 -1.87525E-04  1.44508E-06  2.74086E-03  3.06149E+00  5.42252E-05  9.23754E-06 -5.16934E-06  1.48470E-07  1.50000E+01
  2.07970E+01  2.01802E+01  1.95900E+01  2.89750E-01  1.36682E+00  2.54118E-02 -9.34615E-01 -1.74616E-04 -3.49415E-04 -2.96382E-04  2.35525E-03  4.30976E+00 -3.54353E-04  2.88712E-05 -1.56950E-05 -1.90634E-06  1.50000E+01
  2.05310E+01  2.02053E+01  2.01786E+01  2.68065E-01  9.85343E-01 -1.39471E-02 -5.43949E-01 -1.06313E-04 -2.13240E-04  8.88562E-05  2.60146E-03  2.95763E+00 -4.65041E-04  1.42839E-05 -5.81595E-06  6.08811E-06  1.50000E+01
  2.05291E+01  2.01968E+01  2.01524E+01  2.79786E-01  9.86299E-01 -1.22821E-02 -5.35251E-01 -9.68497E-05 -1.97301E-04  6.98952E-05  2.68723E-03  2.93096E+00 -3.29163E-04  1.30298E-05 -5.67918E-06  5.14850E-06  1.50000E+01
  2.03446E+01  2.02718E+01  2.00815E+01  2.00445E-01  7.12004E-01 -1.09382E-02 -3.38236E-01 -4.98326E-05 -1.43047E-04  3.20208E-05  3.54788E-03  2.35580E+00 -6.48262E-04  1.22240E-05 -4.53124E-06  4.51340E-06  1.50000E+01
  2.03912E+01  2.02982E+01  2.02175E+01  1.54220E-01  7.49673E-01 -1.97698E-02 -6.30757E-01 -9.38599E-05 -2.25022E-04  1.27768E-04  2.59293E-03  2.41798E+00 -1.23570E-03  1.74673E-05 -2.08479E-06  1.27318E-05  1.50000E+01
  2.04111E+01  2.02957E+01  2.02316E+01  1.55584E-01  7.78106E-01 -1.97000E-02 -6.69622E-01 -1.03700E-04 -2.38474E-04  1.42236E-04  2.58485E-03  2.49460E+00 -1.24148E-03  1.79428E-05 -2.09222E-06  1.29666E-05  1.50000E+01
  2.04087E+01  2.02839E+01  2.02062E+01  1.73259E-01  7.83617E-01 -1.91508E-02 -6.03016E-01 -9.01626E-05 -2.12411E-04  1.13765E-04  2.64303E-03  2.52234E+00 -1.09396E-03  1.64386E-05 -2.39228E-06  1.21993E-05  1.50000E+01
  2.01187E+01  2.03756E+01  2.01530E+01  5.34527E-02  2.79691E-01 -1.58977E-02 -3.67978E-01 -1.14136E-05 -1.54252E-04  5.91693E-05  4.40360E-03  8.81349E-01 -5.09977E-03  3.15141E-05 -7.36434E-06  4.44880E-06  1.50000E+01
  2.00997E+01  2.03851E+01  2.01643E+01  3.44814E-02  2.27249E-01 -1.30206E-02 -3.62360E-01 -6.22391E-06 -1.78938E-04  7.08532E-05  3.70541E-03  7.16123E-01 -6.60132E-03  3.84457E-05 -7.86642E-06  5.03926E-06  1.50000E+01