 TITLE="3D TRIANGULAR SURFACE DATA"
VARIABLES="X","Y","Z","U","V","W","P", "Fex", "Fey", "Fez","Finx","Finy","Finz","WSSx","WSSy","WSSz","AMForce"
 ZONE T="unstruc"N=        1757 E=        3355 F=FEPOINT  ET=TRIANGLE
  2.04510E+01  1.96782E+01  2.00903E+01 -2.83624E-01 -1.52250E-01 -1.53757E-02  1.05376E-01  5.12218E-05 -5.11403E-06  6.05037E-06 -1.35080E-03 -6.25438E-01 -1.22183E-04  4.98941E-05  6.83662E-06  7.92818E-06  1.50000E+01
  2.04734E+01  1.96817E+01  2.00906E+01 -2.78110E-01 -1.63489E-01 -1.78969E-02  9.75396E-02  2.40365E-05 -4.52357E-06  2.86543E-06 -2.48815E-03 -3.15476E-01 -3.76429E-04  2.31018E-05  3.16801E-06  4.05902E-06  1.50000E+01
  2.04688E+01  1.96836E+01  2.00707E+01 -2.78494E-01 -1.64513E-01 -1.40030E-02  1.09660E-01  3.30600E-05 -2.65626E-07  3.48385E-06 -1.03457E-03 -4.67756E-01 -2.14931E-03  3.27060E-05  4.82308E-06  4.12181E-06  1.50000E+01
  2.04475E+01  1.96727E+01  2.01193E+01 -2.85115E-01 -1.44429E-01 -1.95629E-02  8.67751E-02  4.66574E-05 -2.91660E-05  4.86292E-07 -1.51663E-03 -5.00974E-01 -1.21452E-03  4.13236E-05  5.29812E-06  7.20640E-06  1.50000E+01
  2.04694E+01  1.96779E+01  2.01102E+01 -2.79376E-01 -1.56638E-01 -2.05827E-02  1.04825E-01  3.70475E-05 -1.74207E-05  2.81673E-06 -1.32619E-03 -4.42937E-01  2.04613E-03  3.37911E-05  4.32184E-06  6.74953E-06  1.50000E+01
  2.04892E+01  1.96826E+01  2.01017E+01 -2.73600E-01 -1.70390E-01 -2.19166E-02  9.60914E-02  3.06513E-05 -1.32457E-05  2.48275E-06 -2.10133E-03 -4.15098E-01 -9.73532E-04  2.81943E-05  3.77443E-06  5.40478E-06  1.50000E+01
  2.04889E+01  1.96858E+01  2.00796E+01 -2.73010E-01 -1.75229E-01 -1.72307E-02  9.61896E-02  2.84126E-05 -7.49524E-06  2.55889E-06 -1.62965E-03 -4.30350E-01  7.77993E-04  2.68373E-05  3.91903E-06  4.01315E-06  1.50000E+01
  2.04663E+01  1.96856E+01  2.00457E+01 -2.78548E-01 -1.66729E-01 -8.88875E-03  1.00684E-01  3.39262E-05  3.16391E-06  2.26487E-06 -1.13252E-03 -5.17607E-01 -5.25513E-04  3.40542E-05  5.28783E-06  2.32671E-06  1.50000E+01
  2.04465E+01  1.96811E+01  2.00611E+01 -2.84079E-01 -1.55314E-01 -1.00988E-02  1.02019E-01  4.17921E-05  7.27219E-06  4.76421E-06 -1.46925E-03 -5.44129E-01  8.19900E-04  4.24617E-05  6.24679E-06  4.75187E-06  1.50000E+01
  2.04446E+01  1.96829E+01  2.00344E+01 -2.84064E-01 -1.57443E-01 -5.54637E-03  1.08262E-01  3.75475E-05  1.56589E-05  3.06910E-06 -1.23352E-03 -5.18273E-01  2.24366E-04  3.95857E-05  6.09801E-06  2.57385E-06  1.50000E+01
  2.04677E+01  1.96728E+01  2.01345E+01 -2.80343E-01 -1.49136E-01 -2.47041E-02  7.42241E-02  4.58410E-05 -5.61436E-05 -5.40835E-06 -1.48234E-03 -4.53723E-01  5.31134E-04  3.61385E-05  4.24004E-06  7.79775E-06  1.50000E+01
  2.04883E+01  1.96783E+01  2.01245E+01 -2.74203E-01 -1.63427E-01 -2.60857E-02  9.52316E-02  3.96281E-05 -3.30609E-05  4.70771E-07 -9.85959E-04 -4.58581E-01  2.82915E-04  3.38218E-05  4.00670E-06  8.08437E-06  1.50000E+01
  2.04034E+01  1.96707E+01  2.00898E+01 -2.93888E-01 -1.37041E-01 -1.03281E-02  6.59723E-02  4.41287E-05 -7.20508E-06  2.06010E-06 -9.99365E-04 -4.86330E-01 -8.16295E-04  4.22300E-05  6.16878E-06  4.07016E-06  1.50000E+01
  2.04027E+01  1.96740E+01  2.00629E+01 -2.93600E-01 -1.41209E-01 -7.27124E-03  6.43414E-02  4.07788E-05  1.08871E-05  4.09475E-06 -1.19242E-03 -4.92529E-01 -4.66402E-04  4.18897E-05  6.29297E-06  3.60261E-06  1.50000E+01
  2.03814E+01  1.96690E+01  2.00761E+01 -2.97560E-01 -1.34737E-01 -6.78839E-03  4.78576E-02  4.22114E-05 -3.01982E-06  1.13604E-06 -6.01546E-04 -4.63575E-01 -1.08656E-03  4.10151E-05  6.31681E-06  2.51840E-06  1.50000E+01
  2.04260E+01  1.96720E+01  2.01038E+01 -2.89683E-01 -1.40404E-01 -1.45557E-02  8.04313E-02  4.78978E-05 -1.51984E-05  2.48620E-06 -1.65781E-03 -5.26620E-01 -4.53882E-04  4.47244E-05  6.13636E-06  6.14300E-06  1.50000E+01
  2.04037E+01  1.96662E+01  2.01163E+01 -2.94343E-01 -1.31277E-01 -1.29823E-02  9.73812E-02  4.66955E-05 -1.80721E-05  2.39367E-07 -7.44389E-04 -4.56124E-01 -1.34247E-03  4.31932E-05  6.08082E-06  4.77278E-06  1.50000E+01
  2.04254E+01  1.96668E+01  2.01306E+01 -2.90305E-01 -1.33938E-01 -1.78196E-02  9.33618E-02  4.83701E-05 -3.09196E-05 -1.48041E-06 -1.00578E-03 -4.56355E-01 -1.04100E-03  4.28073E-05  5.63535E-06  6.16515E-06  1.50000E+01
  2.04255E+01  1.96760E+01  2.00762E+01 -2.89245E-01 -1.45315E-01 -1.08097E-02  1.02505E-01  4.53556E-05  4.59699E-06  5.26963E-06 -1.56971E-03 -5.46418E-01 -4.39515E-04  4.53939E-05  6.52729E-06  5.50164E-06  1.50000E+01
  2.04240E+01  1.96787E+01  2.00489E+01 -2.89103E-01 -1.48480E-01 -6.79134E-03  8.96511E-02  4.15742E-05  1.26694E-05  4.21246E-06 -1.33110E-03 -5.11890E-01 -1.51000E-04  4.28121E-05  6.45243E-06  3.67333E-06  1.50000E+01
  2.05081E+01  1.96875E+01  2.00906E+01 -2.67121E-01 -1.86197E-01 -2.17350E-02  6.63350E-02  3.14479E-05 -1.26493E-05  2.62157E-06 -1.53042E-03 -5.01454E-01 -1.35732E-04  2.89386E-05  4.12573E-06  5.11221E-06  1.50000E+01
  2.05075E+01  1.96904E+01  2.00670E+01 -2.66539E-01 -1.90640E-01 -1.62318E-02  5.91772E-02  3.09585E-05 -7.56937E-06  3.06528E-06 -1.27470E-03 -5.32770E-01  3.92940E-05  2.91883E-05  4.43227E-06  4.30557E-06  1.50000E+01
  2.05082E+01  1.96836E+01  2.01140E+01 -2.67735E-01 -1.80014E-01 -2.69945E-02  9.05088E-02  3.54433E-05 -2.11754E-05  2.50589E-06 -1.74742E-03 -4.97809E-01 -3.76643E-04  3.16481E-05  4.00165E-06  7.28813E-06  1.50000E+01
  2.04872E+01  1.96881E+01  2.00563E+01 -2.72618E-01 -1.77964E-01 -1.23789E-02  6.79246E-02  3.24226E-05 -1.02240E-05  1.78277E-06 -6.44263E-04 -5.07930E-01 -3.94960E-04  3.03402E-05  4.70341E-06  3.06420E-06  1.50000E+01
  2.05068E+01  1.96925E+01  2.00427E+01 -2.66069E-01 -1.93503E-01 -1.05431E-02  7.11959E-02  3.11818E-05 -5.87944E-07  2.58296E-06 -7.54073E-04 -5.70298E-01 -2.83137E-04  3.05264E-05  4.89929E-06  2.99727E-06  1.50000E+01
  2.04230E+01  1.96801E+01  2.00222E+01 -2.88972E-01 -1.50319E-01 -2.85172E-03  9.78987E-02  3.94481E-05  1.82709E-05  2.15919E-06 -1.16793E-03 -4.98468E-01  4.25735E-05  4.17570E-05  6.49982E-06  1.75695E-06  1.50000E+01
  2.04651E+01  1.96868E+01  2.00200E+01 -2.78502E-01 -1.68254E-01 -3.79925E-03  9.80090E-02  3.36696E-05  8.84861E-06  1.36623E-06 -1.01763E-03 -5.31382E-01 -1.15443E-04  3.45230E-05  5.47074E-06  1.15624E-06  1.50000E+01
  2.04438E+01  1.96838E+01  2.00082E+01 -2.84009E-01 -1.58499E-01 -1.07439E-03  1.15132E-01  3.51840E-05  2.06984E-05  8.58409E-07 -1.04210E-03 -5.11948E-01  1.75154E-04  3.81052E-05  5.97917E-06  6.69647E-07  1.50000E+01
  2.04040E+01  1.96608E+01  2.01422E+01 -2.94923E-01 -1.23755E-01 -1.50752E-02  1.00536E-01  5.05412E-05 -2.60345E-05 -9.01330E-07 -5.80069E-06 -4.16758E-01 -2.29548E-03  4.56655E-05  5.97175E-06  6.38866E-06  1.50000E+01
  2.04254E+01  1.96610E+01  2.01561E+01 -2.90917E-01 -1.26412E-01 -2.05730E-02  1.01365E-01  5.00754E-05 -3.90751E-05 -3.74998E-06 -4.81065E-04 -4.13736E-01 -1.72095E-03  4.36863E-05  5.34529E-06  7.24891E-06  1.50000E+01
  2.08311E+01  1.96798E+01  1.96958E+01 -1.21783E-01 -4.45231E-01  1.57488E-01  2.11000E-01  2.56216E-05  4.82557E-05 -4.44909E-05  2.53471E-03 -1.40685E+00  2.52402E-03  3.18528E-05 -5.47799E-06 -1.83246E-05  1.50000E+01
  2.08109E+01  1.96838E+01  1.97093E+01 -1.28781E-01 -4.28327E-01  1.47378E-01  2.01679E-01  2.42029E-05  5.07708E-05 -4.39414E-05  2.24532E-03 -1.35176E+00  2.15621E-03  3.18039E-05 -4.32522E-06 -1.86266E-05  1.50000E+01
  2.08306E+01  1.96916E+01  1.97211E+01 -1.19224E-01 -4.62051E-01  1.48036E-01  1.94606E-01  2.63464E-05  3.45025E-05 -3.44200E-05  2.22209E-03 -1.45808E+00  2.03736E-03  3.13060E-05 -3.95345E-06 -1.72079E-05  1.50000E+01
  2.08104E+01  1.96948E+01  1.97347E+01 -1.27025E-01 -4.44516E-01  1.37349E-01  1.52596E-01  2.59768E-05  3.51697E-05 -3.40812E-05  1.92100E-03 -1.40135E+00  1.71771E-03  3.16723E-05 -3.08199E-06 -1.79815E-05  1.50000E+01
  2.08302E+01  1.97025E+01  1.97466E+01 -1.17515E-01 -4.76667E-01  1.37143E-01  1.53855E-01  2.85171E-05  1.66931E-05 -2.47163E-05  1.88974E-03 -1.50244E+00  1.57843E-03  3.13201E-05 -2.68775E-06 -1.65304E-05  1.50000E+01
  2.08916E+01  1.96633E+01  1.96569E+01 -1.08641E-01 -4.89812E-01  1.84646E-01  1.99702E-01  3.07889E-05  7.28096E-05 -6.55873E-05  2.90270E-03 -1.55200E+00  3.52750E-03  3.34956E-05 -9.52973E-06 -1.80012E-05  1.50000E+01
  2.08715E+01  1.96696E+01  1.96696E+01 -1.11642E-01 -4.76283E-01  1.76330E-01  1.69906E-01  2.85727E-05  6.39699E-05 -5.80631E-05  2.86761E-03 -1.50805E+00  3.25040E-03  3.22670E-05 -8.15753E-06 -1.81191E-05  1.50000E+01
  2.08913E+01  1.96771E+01  1.96815E+01 -1.02789E-01 -5.09205E-01  1.78649E-01  1.41723E-01  3.01263E-05  5.17715E-05 -5.02866E-05  2.64858E-03 -1.61207E+00  2.93250E-03  3.32186E-05 -8.08496E-06 -1.77913E-05  1.50000E+01
  2.05082E+01  1.96789E+01  2.01377E+01 -2.68277E-01 -1.72343E-01 -3.20086E-02  7.24897E-02  4.06937E-05 -3.62864E-05  3.99632E-07 -1.38774E-03 -4.99580E-01  7.68571E-05  3.42206E-05  3.77083E-06  9.31639E-06  1.50000E+01
  2.08908E+01  1.96901E+01  1.97065E+01 -9.82261E-02 -5.26165E-01  1.70324E-01  1.83967E-01  2.98409E-05  3.39796E-05 -3.70855E-05  2.36167E-03 -1.66445E+00  2.35226E-03  3.26866E-05 -6.38782E-06 -1.68197E-05  1.50000E+01
  2.09111E+01  1.96845E+01  1.96936E+01 -9.40725E-02 -5.40255E-01  1.81016E-01  7.12245E-02  3.30219E-05  2.52314E-05 -3.39833E-05  2.44557E-03 -1.71040E+00  2.66056E-03  3.50109E-05 -7.63211E-06 -1.69145E-05  1.50000E+01
  2.05268E+01  1.96967E+01  2.00295E+01 -2.58917E-01 -2.10680E-01 -8.18435E-03  1.00738E-01  3.04453E-05  8.90757E-06  2.83949E-06 -6.88207E-04 -6.29469E-01 -2.65227E-04  3.11724E-05  5.20217E-06  2.63018E-06  1.50000E+01
  2.05062E+01  1.96936E+01  2.00177E+01 -2.65862E-01 -1.95103E-01 -4.56800E-03  1.15768E-01  2.93759E-05  1.54533E-05  1.63983E-06 -6.62634E-04 -5.90946E-01 -2.47722E-04  3.11857E-05  5.16259E-06  1.21971E-06  1.50000E+01
  2.04465E+01  1.96670E+01  2.01450E+01 -2.85921E-01 -1.37132E-01 -2.31208E-02  6.94638E-02  4.82864E-05 -5.53020E-05 -7.41724E-06 -1.32405E-03 -4.41372E-01 -7.82291E-04  3.93703E-05  4.90798E-06  6.55194E-06  1.50000E+01
  2.04465E+01  1.96609E+01  2.01699E+01 -2.86531E-01 -1.29252E-01 -2.64639E-02  9.28790E-02  4.95638E-05 -5.97766E-05 -9.27015E-06 -9.65766E-04 -4.09477E-01 -1.11992E-03  3.97175E-05  4.55470E-06  7.35081E-06  1.50000E+01
  2.04673E+01  1.96671E+01  2.01591E+01 -2.81067E-01 -1.41279E-01 -2.88064E-02  5.42953E-02  4.97591E-05 -7.81043E-05 -1.28299E-05 -1.52876E-03 -4.34242E-01 -4.07262E-07  3.65274E-05  4.13249E-06  7.53684E-06  1.50000E+01
  2.04225E+01  1.96805E+01  1.99960E+01 -2.88913E-01 -1.50857E-01  1.01686E-03  9.98337E-02  3.82887E-05  2.01725E-05 -3.55990E-07 -1.04638E-03 -4.89479E-01  1.78781E-04  4.08884E-05  6.42057E-06 -2.79040E-07  1.50000E+01
  2.04645E+01  1.96871E+01  1.99942E+01 -2.78541E-01 -1.68563E-01  1.23507E-03  9.30241E-02  3.31304E-05  1.08627E-05 -2.90165E-07 -8.93642E-04 -5.31808E-01  8.56346E-05  3.43056E-05  5.45986E-06 -2.10026E-07  1.50000E+01
  2.04435E+01  1.96835E+01  1.99822E+01 -2.84084E-01 -1.58235E-01  3.32363E-03  1.11297E-01  3.46318E-05  2.08184E-05 -1.50716E-06 -9.90877E-04 -5.04422E-01  2.25315E-04  3.75769E-05  5.88188E-06 -1.10164E-06  1.50000E+01
  2.08494E+01  1.97196E+01  1.97847E+01 -1.07342E-01 -5.18500E-01  1.23537E-01  1.24852E-01  3.03261E-05  5.06273E-06 -1.70389E-05  1.45706E-03 -1.63230E+00  9.95740E-04  3.15840E-05 -1.20774E-06 -1.48968E-05  1.50000E+01
  2.08696E+01  1.97169E+01  1.97709E+01 -9.94120E-02 -5.36395E-01  1.35511E-01  1.40898E-01  2.90777E-05  1.73678E-05 -2.19342E-05  1.61896E-03 -1.69143E+00  1.14336E-03  3.16568E-05 -2.12946E-06 -1.45199E-05  1.50000E+01
  2.08499E+01  1.97098E+01  1.97587E+01 -1.08332E-01 -5.07287E-01  1.36506E-01  1.20315E-01  2.88680E-05  1.11190E-05 -2.01593E-05  1.78078E-03 -1.59891E+00  1.38346E-03  3.07542E-05 -2.25175E-06 -1.49273E-05  1.50000E+01
  2.05280E+01  1.96890E+01  2.01026E+01 -2.60486E-01 -1.98714E-01 -2.69897E-02  4.03258E-02  3.41285E-05 -2.10853E-05  2.26282E-06 -1.45301E-03 -5.68302E-01 -3.11372E-04  3.00347E-05  4.12039E-06  6.44632E-06  1.50000E+01
  2.01226E+01  1.96919E+01  2.01913E+01 -9.81297E-02  8.53039E-01  9.69746E-03  2.00148E-01  1.49506E-04  9.48692E-05 -7.77676E-05  1.43104E-02  2.70705E+00 -7.56570E-03  5.16704E-05 -4.04310E-05 -4.31151E-06  1.50000E+01
  2.01087E+01  1.97093E+01  2.02019E+01 -6.28234E-02  8.94162E-01  2.98381E-03  1.46880E-01  1.69839E-04  8.84356E-05 -9.23336E-05  9.82074E-03  2.82094E+00 -4.20046E-03  5.94803E-05 -5.04791E-05 -3.03982E-06  1.50000E+01
  2.01282E+01  1.97019E+01  2.02148E+01 -7.33374E-02  8.71536E-01  4.68763E-03  6.35894E-01  2.58305E-04  1.93369E-04 -1.65921E-04  1.10893E-02  2.76092E+00 -5.63220E-03  5.95297E-05 -5.01675E-05 -3.07625E-06  1.50000E+01
  2.09101E+01  1.97093E+01  1.97440E+01 -8.61499E-02 -5.69457E-01  1.60475E-01  2.44318E-02  3.24729E-05  7.91229E-06 -1.99689E-05  1.85641E-03 -1.80045E+00  1.59011E-03  3.36722E-05 -4.32107E-06 -1.48455E-05  1.50000E+01
  2.09304E+01  1.97045E+01  1.97309E+01 -8.09346E-02 -5.84166E-01  1.73340E-01  3.01120E-02  1.67831E-05  3.40744E-06 -1.00939E-05  1.48769E-02 -9.66646E-01  1.65677E-02  1.72099E-05 -2.60777E-06 -7.40396E-06  1.50000E+01
  2.09106E+01  1.96974E+01  1.97186E+01 -8.95599E-02 -5.55945E-01  1.71792E-01  6.74129E-02  3.25509E-05  1.60969E-05 -2.64216E-05  2.15662E-03 -1.75892E+00  2.10615E-03  3.41413E-05 -5.84907E-06 -1.57805E-05  1.50000E+01
  2.08504E+01  1.96991E+01  1.97330E+01 -1.10005E-01 -4.94131E-01  1.48271E-01  1.51917E-01  2.85978E-05  1.81575E-05 -2.60931E-05  2.11288E-03 -1.55920E+00  1.83795E-03  3.13510E-05 -3.79095E-06 -1.63903E-05  1.50000E+01
  2.08701E+01  1.97064E+01  1.97451E+01 -1.01068E-01 -5.24563E-01  1.48170E-01  1.06805E-01  2.99540E-05  8.34426E-06 -2.07648E-05  1.94311E-03 -1.65571E+00  1.58400E-03  3.15176E-05 -3.61889E-06 -1.57236E-05  1.50000E+01
  2.04223E+01  1.96797E+01  1.99701E+01 -2.88998E-01 -1.50071E-01  4.77468E-03  9.51177E-02  3.78786E-05  1.92677E-05 -2.86302E-06 -1.00684E-03 -4.80285E-01  2.34379E-04  4.02879E-05  6.22284E-06 -2.20772E-06  1.50000E+01
  2.04020E+01  1.96761E+01  2.00361E+01 -2.93400E-01 -1.43908E-01 -4.02139E-03  6.66133E-02  3.88295E-05  2.11536E-05  3.23565E-06 -1.18901E-03 -4.85966E-01 -2.00096E-04  4.13502E-05  6.40963E-06  2.34666E-06  1.50000E+01
  2.04015E+01  1.96771E+01  2.00097E+01 -2.93245E-01 -1.45233E-01 -7.37402E-04  1.09146E-01  3.79663E-05  2.54063E-05  9.40000E-07 -1.06517E-03 -4.78902E-01  2.97779E-05  4.11820E-05  6.49233E-06  6.30224E-07  1.50000E+01
  2.08718E+01  1.96558E+01  1.96450E+01 -1.17580E-01 -4.55360E-01  1.81553E-01  2.46094E-01  2.96492E-05  7.75188E-05 -6.95432E-05  3.12643E-03 -1.44324E+00  3.86026E-03  3.32257E-05 -9.76993E-06 -1.87769E-05  1.50000E+01
  2.08100E+01  1.97051E+01  1.97604E+01 -1.25964E-01 -4.58572E-01  1.26102E-01  1.09397E-01  3.07434E-05 -1.16347E-06 -1.67890E-05  1.59455E-03 -1.44345E+00  1.31323E-03  3.11805E-05 -1.64238E-06 -1.64420E-05  1.50000E+01
  2.08297E+01  1.97125E+01  1.97724E+01 -1.16500E-01 -4.89242E-01  1.25041E-01  1.12838E-01  3.06229E-05  1.49890E-06 -1.67412E-05  1.56142E-03 -1.53985E+00  1.17341E-03  3.12266E-05 -1.41702E-06 -1.56153E-05  1.50000E+01
  2.03808E+01  1.96717E+01  2.00497E+01 -2.97282E-01 -1.38650E-01 -4.42359E-03 -6.76429E-03  3.94766E-05  1.22631E-05  2.44769E-06 -8.48701E-04 -4.70396E-01 -5.82669E-04  4.06352E-05  6.34547E-06  2.22670E-06  1.50000E+01
  2.03592E+01  1.96692E+01  2.00366E+01 -3.00479E-01 -1.36748E-01 -2.18195E-03  3.00785E-02  4.07651E-05  3.56147E-06  9.42022E-07 -3.31064E-04 -4.58640E-01 -6.96763E-04  4.03897E-05  6.54733E-06  9.98486E-07  1.50000E+01
  2.03596E+01  1.96670E+01  2.00628E+01 -3.00800E-01 -1.32843E-01 -3.84158E-03  4.54666E-02  4.25864E-05 -3.56477E-06  4.35992E-07 -6.90247E-05 -4.51099E-01 -1.35103E-03  4.08143E-05  6.52368E-06  1.47963E-06  1.50000E+01
  2.05276E+01  1.96925E+01  2.00786E+01 -2.59883E-01 -2.04302E-01 -2.09109E-02  8.06248E-02  3.10792E-05 -4.42736E-06  4.31958E-06 -1.24798E-03 -5.85425E-01 -2.78207E-04  2.97717E-05  4.42525E-06  5.50981E-06  1.50000E+01
  2.05272E+01  1.96950E+01  2.00542E+01 -2.59318E-01 -2.08281E-01 -1.46324E-02  9.76801E-02  3.03686E-05  3.61958E-06  4.49912E-06 -9.49108E-04 -6.09537E-01 -2.09673E-04  3.03613E-05  4.81537E-06  4.52091E-06  1.50000E+01
  2.05470E+01  1.97007E+01  2.00165E+01 -2.51278E-01 -2.28948E-01 -5.18632E-03  7.60670E-02  3.10793E-05  3.73950E-06  1.61129E-06 -6.66767E-04 -6.88531E-01 -1.96770E-04  3.13659E-05  5.46424E-06  1.71977E-06  1.50000E+01
  2.05265E+01  1.96973E+01  2.00044E+01 -2.58781E-01 -2.11539E-01 -1.56554E-03  9.68500E-02  3.08660E-05  1.04993E-05  3.54115E-07 -6.62752E-04 -6.40329E-01 -2.17464E-04  3.16542E-05  5.40652E-06  3.04690E-07  1.50000E+01
  2.08706E+01  1.96950E+01  1.97196E+01 -1.03552E-01 -5.10712E-01  1.59368E-01  1.70676E-01  2.90932E-05  2.31410E-05 -3.03359E-05  2.25384E-03 -1.61373E+00  2.08253E-03  3.18009E-05 -5.17182E-06 -1.68990E-05  1.50000E+01
  2.08711E+01  1.96827E+01  1.96944E+01 -1.07021E-01 -4.94678E-01  1.68847E-01  1.90594E-01  2.87031E-05  3.97068E-05 -4.17615E-05  2.57390E-03 -1.56490E+00  2.65167E-03  3.23236E-05 -6.78521E-06 -1.78593E-05  1.50000E+01
  2.07907E+01  1.96870E+01  1.97230E+01 -1.36883E-01 -4.10950E-01  1.37074E-01  1.26205E-01  2.42884E-05  4.35888E-05 -3.90769E-05  1.85695E-03 -1.29559E+00  1.80434E-03  3.17778E-05 -3.22897E-06 -1.86920E-05  1.50000E+01
  2.03824E+01  1.96603E+01  2.01284E+01 -2.98619E-01 -1.20896E-01 -1.00248E-02  9.61731E-02  4.89765E-05 -1.87649E-05 -5.50752E-07  5.30600E-04 -4.13211E-01 -2.92743E-03  4.52314E-05  6.37632E-06  4.69320E-06  1.50000E+01
  2.03613E+01  1.96543E+01  2.01403E+01 -3.03364E-01 -1.04281E-01 -4.63863E-03  1.00767E-01  4.93998E-05 -2.72935E-05 -4.06782E-06  1.98546E-03 -3.63470E-01 -5.20683E-03  4.42807E-05  6.33361E-06  3.36124E-06  1.50000E+01
  2.03829E+01  1.96546E+01  2.01538E+01 -2.99648E-01 -1.09822E-01 -1.03381E-02  8.31130E-02  5.01868E-05 -3.59526E-05 -5.54252E-06  1.41454E-03 -3.75546E-01 -4.51123E-03  4.35544E-05  5.91160E-06  4.63268E-06  1.50000E+01
  2.08904E+01  1.97023E+01  1.97318E+01 -9.47935E-02 -5.40855E-01  1.59959E-01  1.00399E-01  3.02579E-05  1.41710E-05 -2.45079E-05  2.04987E-03 -1.70941E+00  1.80702E-03  3.20137E-05 -4.76381E-06 -1.57809E-05  1.50000E+01
  2.08113E+01  1.96719E+01  1.96842E+01 -1.31389E-01 -4.09850E-01  1.55967E-01  2.62955E-01  2.32485E-05  6.55241E-05 -5.44852E-05  2.54814E-03 -1.29508E+00  2.62612E-03  3.22379E-05 -5.72564E-06 -1.95223E-05  1.50000E+01
  2.07911E+01  1.96758E+01  1.96978E+01 -1.38688E-01 -3.93117E-01  1.46243E-01  2.09894E-01  2.36352E-05  5.49989E-05 -4.80644E-05  2.16028E-03 -1.24062E+00  2.22218E-03  3.24888E-05 -4.70183E-06 -2.01419E-05  1.50000E+01
  2.04675E+01  1.96606E+01  2.01834E+01 -2.81617E-01 -1.32643E-01 -3.27914E-02  9.03430E-02  5.15592E-05 -7.36886E-05 -1.23266E-05 -1.38137E-03 -4.11455E-01 -4.57806E-04  3.91244E-05  3.72888E-06  9.59972E-06  1.50000E+01
  2.04881E+01  1.96670E+01  2.01726E+01 -2.75577E-01 -1.46701E-01 -3.51526E-02  6.69776E-02  4.88151E-05 -7.22172E-05 -1.09457E-05 -1.62485E-03 -4.44697E-01  1.60202E-04  3.65241E-05  3.59697E-06  9.28195E-06  1.50000E+01
  2.04469E+01  1.96541E+01  2.01943E+01 -2.87131E-01 -1.20082E-01 -2.95399E-02  4.99450E-02  5.51371E-05 -8.68513E-05 -1.76932E-05 -6.52223E-04 -3.83152E-01 -2.03542E-03  4.03038E-05  4.01587E-06  8.76639E-06  1.50000E+01
  2.04643E+01  1.96863E+01  1.99686E+01 -2.78780E-01 -1.67416E-01  6.16859E-03  9.56523E-02  3.30768E-05  1.19302E-05 -2.12617E-06 -1.02732E-03 -5.25915E-01  1.28644E-04  3.45147E-05  5.39570E-06 -1.75434E-06  1.50000E+01
  2.08513E+01  1.96751E+01  1.96826E+01 -1.16035E-01 -4.61329E-01  1.67211E-01  2.22381E-01  2.72452E-05  4.75433E-05 -4.66115E-05  2.76019E-03 -1.45954E+00  2.91291E-03  3.21394E-05 -6.74765E-06 -1.82269E-05  1.50000E+01
  2.08517E+01  1.96620E+01  1.96578E+01 -1.20720E-01 -4.41343E-01  1.73882E-01  2.22127E-01  2.69223E-05  7.07090E-05 -6.26606E-05  3.06183E-03 -1.39762E+00  3.51326E-03  3.24273E-05 -8.21855E-06 -1.87177E-05  1.50000E+01
  2.08315E+01  1.96674E+01  1.96708E+01 -1.25348E-01 -4.26054E-01  1.65267E-01  2.26788E-01  2.50721E-05  6.63104E-05 -5.74273E-05  2.87659E-03 -1.34801E+00  3.08891E-03  3.23554E-05 -6.96059E-06 -1.92076E-05  1.50000E+01
  2.07709E+01  1.96789E+01  1.97115E+01 -1.47061E-01 -3.76186E-01  1.36296E-01  1.67613E-01  2.34449E-05  4.74004E-05 -4.17816E-05  1.69919E-03 -1.18606E+00  1.86835E-03  3.20420E-05 -3.23417E-06 -1.91319E-05  1.50000E+01
  2.05483E+01  1.96904E+01  2.01152E+01 -2.53142E-01 -2.12514E-01 -3.29016E-02  2.66114E-02  3.52447E-05 -2.32283E-05  3.03406E-06 -1.30420E-03 -6.25282E-01 -3.60234E-04  3.06196E-05  3.95579E-06  8.00214E-06  1.50000E+01
  2.05283E+01  1.96847E+01  2.01266E+01 -2.61041E-01 -1.91554E-01 -3.28540E-02  8.21927E-02  3.65925E-05 -2.69156E-05  1.54456E-06 -1.51919E-03 -5.57058E-01 -3.12795E-04  3.15895E-05  3.91984E-06  7.69759E-06  1.50000E+01
  2.03819E+01  1.96651E+01  2.01025E+01 -2.97972E-01 -1.28962E-01 -8.74326E-03  9.39693E-02  4.55403E-05 -1.14080E-05  3.38883E-07 -1.41714E-04 -4.44134E-01 -1.86061E-03  4.30686E-05  6.42600E-06  3.35031E-06  1.50000E+01
  2.03601E+01  1.96638E+01  2.00889E+01 -3.01283E-01 -1.26581E-01 -5.03385E-03  8.08109E-02  4.59874E-05 -7.11277E-06  6.19332E-07  4.52049E-04 -4.33643E-01 -2.27343E-03  4.40576E-05  6.79129E-06  2.70873E-06  1.50000E+01
  2.01150E+01  1.97203E+01  2.02248E+01 -4.30353E-02  9.05277E-01  0.00000E+00  5.31005E-01  1.43824E-04  1.00827E-04 -9.15646E-05 -6.48568E-01 -1.49409E+01 -1.93278E+01  3.27874E-05 -2.82800E-05 -8.73855E-07  1.50000E+01
  2.09312E+01  1.96781E+01  1.96809E+01 -9.11196E-02 -5.52764E-01  1.91306E-01 -2.36612E-02  1.71001E-05  2.40763E-06 -1.16705E-05  1.30145E-02 -9.17919E-01  1.65376E-02  1.80115E-05 -4.31663E-06 -8.36354E-06  1.50000E+01
  2.09114E+01  1.96708E+01  1.96689E+01 -9.98458E-02 -5.22232E-01  1.87846E-01  1.52849E-01  3.30748E-05  3.94565E-05 -4.44391E-05  2.70017E-03 -1.65448E+00  3.23471E-03  3.56318E-05 -9.09489E-06 -1.71786E-05  1.50000E+01
  2.07915E+01  1.96638E+01  1.96728E+01 -1.41337E-01 -3.72912E-01  1.53963E-01  2.45037E-01  2.18159E-05  7.31707E-05 -6.01633E-05  2.44291E-03 -1.17833E+00  2.67473E-03  3.29629E-05 -6.03519E-06 -2.09320E-05  1.50000E+01
  2.07713E+01  1.96675E+01  1.96864E+01 -1.48899E-01 -3.56675E-01  1.44603E-01  1.97502E-01  2.35249E-05  5.22084E-05 -4.77469E-05  1.97143E-03 -1.12564E+00  2.27113E-03  3.27273E-05 -4.74175E-06 -2.07214E-05  1.50000E+01
  2.04012E+01  1.96769E+01  1.99836E+01 -2.93190E-01 -1.45215E-01  2.48809E-03  1.00105E-01  3.71882E-05  2.60154E-05 -1.69781E-06 -9.37112E-04 -4.70684E-01  1.86918E-04  4.05157E-05  6.38391E-06 -1.17880E-06  1.50000E+01
  2.05286E+01  1.96794E+01  2.01508E+01 -2.61535E-01 -1.82905E-01 -3.85381E-02  8.62296E-02  3.85761E-05 -2.92203E-05  1.72269E-06 -1.43873E-03 -5.41955E-01 -9.61628E-05  3.31880E-05  3.48885E-06  9.49989E-06  1.50000E+01
  2.04044E+01  1.96546E+01  2.01673E+01 -2.95774E-01 -1.14012E-01 -1.64111E-02  9.80462E-02  5.11580E-05 -4.37538E-05 -7.07180E-06  7.80917E-04 -3.81128E-01 -3.73362E-03  4.33081E-05  5.54555E-06  5.77233E-06  1.50000E+01
  2.04257E+01  1.96545E+01  2.01809E+01 -2.91645E-01 -1.17299E-01 -2.28164E-02  6.87288E-02  5.20701E-05 -5.95350E-05 -1.05490E-05  7.97365E-05 -3.82512E-01 -2.89779E-03  4.15904E-05  4.85889E-06  6.98157E-06  1.50000E+01
  2.01376E+01  1.96762E+01  2.01798E+01 -1.44755E-01  7.90467E-01  2.24051E-02  5.36731E-02  9.81154E-05  4.60901E-05 -3.63368E-05  1.09860E-02  2.53042E+00 -4.13942E-03  4.94079E-05 -3.20284E-05 -3.74341E-06  1.50000E+01
  2.01179E+01  1.96835E+01  2.01670E+01 -1.25467E-01  8.27417E-01  1.53561E-02 -4.09439E-02  1.01867E-04  4.51848E-05 -3.74689E-05  1.18650E-02  2.62320E+00 -4.90063E-03  4.87097E-05 -3.35133E-05 -3.67803E-06  1.50000E+01
  2.08520E+01  1.96481E+01  1.96333E+01 -1.26744E-01 -4.18739E-01  1.78355E-01  2.73061E-01  2.75667E-05  9.20753E-05 -7.84302E-05  3.32127E-03 -1.32756E+00  4.13622E-03  3.29147E-05 -9.58282E-06 -1.90179E-05  1.50000E+01
  2.03377E+01  1.96663E+01  2.00238E+01 -3.03408E-01 -1.34172E-01 -5.33646E-04  8.14273E-02  4.22504E-05 -1.51076E-06  1.02523E-07  4.52282E-04 -4.49596E-01 -7.05374E-04  4.11823E-05  6.84004E-06  4.47871E-07  1.50000E+01
  2.03381E+01  1.96647E+01  2.00498E+01 -3.03787E-01 -1.30241E-01 -1.44341E-03  6.89059E-02  4.44752E-05 -5.30943E-06  2.16087E-07  6.92835E-04 -4.41164E-01 -1.54527E-03  4.27865E-05  6.99018E-06  1.13992E-06  1.50000E+01
  2.05479E+01  1.96944E+01  2.00908E+01 -2.52604E-01 -2.19059E-01 -2.62299E-02  7.30748E-02  3.23798E-05 -6.89144E-06  5.26365E-06 -1.19714E-03 -6.42137E-01 -3.30770E-04  3.05776E-05  4.39741E-06  6.88857E-06  1.50000E+01
  2.05476E+01  1.96974E+01  2.00662E+01 -2.52045E-01 -2.23988E-01 -1.93701E-02  8.32728E-02  3.14715E-05  1.76600E-06  5.44899E-06 -9.83742E-04 -6.59721E-01 -2.81103E-04  3.11945E-05  4.88814E-06  5.73915E-06  1.50000E+01
  2.03620E+01  1.96483E+01  2.01655E+01 -3.05403E-01 -8.58994E-02 -2.11138E-03  4.88190E-02  5.12731E-05 -5.27387E-05 -1.25808E-05  2.46406E-03 -3.08127E-01 -7.17645E-03  4.24483E-05  5.91955E-06  2.17232E-06  1.50000E+01
  2.03411E+01  1.96423E+01  2.01774E+01 -3.12844E-01 -4.39294E-02  1.13108E-02  6.20774E-02  5.48661E-05 -6.59599E-05 -1.49002E-05  1.29646E-03 -1.84754E-01 -8.58311E-03  4.57348E-05  5.19487E-06  2.59979E-06  1.50000E+01
  2.03626E+01  1.96419E+01  2.01904E+01 -3.08330E-01 -6.02734E-02  2.80147E-03  6.08342E-02  5.49749E-05 -7.43389E-05 -1.80314E-05  1.93838E-03 -2.32434E-01 -8.88623E-03  4.41217E-05  5.18358E-06  3.28900E-06  1.50000E+01
  2.07512E+01  1.96706E+01  1.97002E+01 -1.57476E-01 -3.40501E-01  1.35008E-01  2.24465E-01  2.29469E-05  4.91363E-05 -4.33354E-05  1.46494E-03 -1.07369E+00  1.94896E-03  3.24268E-05 -3.34322E-06 -1.98430E-05  1.50000E+01
  2.03804E+01  1.96733E+01  2.00233E+01 -2.97071E-01 -1.40933E-01 -1.85462E-03  9.74403E-02  3.78266E-05  2.06727E-05  1.70502E-06 -8.96458E-04 -4.69527E-01 -2.34924E-04  4.04977E-05  6.44932E-06  1.19816E-06  1.50000E+01
  2.03801E+01  1.96738E+01  1.99972E+01 -2.96926E-01 -1.41701E-01  7.68230E-04  1.06835E-01  3.71961E-05  2.26831E-05 -3.25994E-07 -7.84716E-04 -4.64725E-01  5.62993E-05  4.00596E-05  6.42897E-06 -2.37191E-07  1.50000E+01
  2.05472E+01  1.96995E+01  2.00415E+01 -2.51567E-01 -2.27290E-01 -1.23471E-02  7.85681E-02  3.13886E-05  2.61642E-06  3.90048E-06 -7.73053E-04 -6.76475E-01 -2.31072E-04  3.13627E-05  5.24400E-06  4.10939E-06  1.50000E+01
  2.08318E+01  1.96542E+01  1.96462E+01 -1.30096E-01 -4.04342E-01  1.71127E-01  3.12317E-01  2.48089E-05  9.16026E-05 -7.56195E-05  3.17503E-03 -1.28058E+00  3.67971E-03  3.30799E-05 -8.52073E-06 -2.00566E-05  1.50000E+01
  2.08117E+01  1.96594E+01  1.96593E+01 -1.35003E-01 -3.88930E-01  1.62894E-01  2.82756E-01  2.18298E-05  8.95800E-05 -7.08575E-05  2.87930E-03 -1.23055E+00  3.17593E-03  3.29353E-05 -7.20586E-06 -2.04647E-05  1.50000E+01
  2.03607E+01  1.96595E+01  2.01148E+01 -3.02069E-01 -1.17374E-01 -5.43733E-03  9.81247E-02  4.96480E-05 -1.35321E-05  4.73672E-07  1.19287E-03 -4.04539E-01 -3.54767E-03  4.66236E-05  6.78739E-06  4.27139E-06  1.50000E+01
  2.03391E+01  1.96583E+01  2.01015E+01 -3.05415E-01 -1.12440E-01 -1.29065E-03  9.69569E-02  4.91518E-05 -1.02497E-05  8.52764E-07  1.85422E-03 -3.90904E-01 -4.04311E-03  4.65523E-05  6.93256E-06  3.67580E-06  1.50000E+01
  2.05873E+01  1.97081E+01  1.99903E+01 -2.34706E-01 -2.67482E-01  2.74315E-03 -1.02552E-02  3.40259E-05 -2.47757E-05 -3.98937E-07 -5.72762E-04 -8.13600E-01 -1.80067E-05  2.87124E-05  5.29258E-06 -8.42805E-07  1.50000E+01
  2.05671E+01  1.97041E+01  1.99780E+01 -2.43203E-01 -2.47121E-01  6.36334E-03  6.52244E-02  3.10220E-05 -3.59245E-06 -1.68533E-06 -5.97581E-04 -7.53202E-01 -2.09453E-05  2.99031E-05  5.32210E-06 -2.02525E-06  1.50000E+01
  2.05672E+01  1.97045E+01  2.00034E+01 -2.43194E-01 -2.47958E-01 -1.53486E-03  6.46674E-02  3.10135E-05 -5.44497E-06  2.43525E-07 -6.20618E-04 -7.50224E-01 -9.71377E-05  2.95241E-05  5.32784E-06  3.05351E-07  1.50000E+01
  2.08321E+01  1.96403E+01  1.96217E+01 -1.36196E-01 -3.79926E-01  1.74840E-01  3.44897E-01  2.51946E-05  1.13534E-04 -9.17777E-05  3.42458E-03 -1.20472E+00  4.29579E-03  3.30314E-05 -9.57940E-06 -1.98122E-05  1.50000E+01
  2.05491E+01  1.96797E+01  2.01639E+01 -2.54034E-01 -1.94652E-01 -4.56709E-02  8.53908E-02  3.95446E-05 -2.91427E-05  3.17304E-06 -1.37516E-03 -5.83224E-01 -2.45782E-04  3.41027E-05  3.10103E-06  1.15181E-05  1.50000E+01
  2.05487E+01  1.96855E+01  2.01396E+01 -2.53618E-01 -2.04364E-01 -3.93764E-02  6.77704E-02  3.71689E-05 -2.83881E-05  1.85988E-06 -1.33901E-03 -6.06594E-01 -3.56690E-04  3.17788E-05  3.69045E-06  8.84719E-06  1.50000E+01
  2.03385E+01  1.96620E+01  2.00757E+01 -3.04409E-01 -1.23236E-01 -1.82486E-03  8.38804E-02  4.75487E-05 -7.03325E-06  6.71906E-07  1.17660E-03 -4.22453E-01 -2.62825E-03  4.56427E-05  7.18631E-06  2.53364E-06  1.50000E+01
  2.03841E+01  1.96413E+01  2.02035E+01 -3.03698E-01 -7.32051E-02 -6.13972E-03  7.32638E-02  5.53452E-05 -6.87629E-05 -1.60258E-05  2.04784E-03 -2.68316E-01 -8.73178E-03  4.47704E-05  4.99311E-06  5.17173E-06  1.50000E+01
  2.04054E+01  1.96406E+01  2.02166E+01 -2.98898E-01 -8.30091E-02 -1.53400E-02  7.24355E-02  5.36024E-05 -6.21081E-05 -1.41887E-05  1.71519E-03 -2.93224E-01 -8.15623E-03  4.37081E-05  4.67949E-06  6.21022E-06  1.50000E+01
  2.04049E+01  1.96479E+01  2.01921E+01 -2.97070E-01 -1.00977E-01 -1.66725E-02  6.16947E-02  5.29333E-05 -6.10386E-05 -1.36468E-05  1.41865E-03 -3.42987E-01 -5.73943E-03  4.25631E-05  5.20274E-06  5.41685E-06  1.50000E+01
  2.00985E+01  1.96912E+01  2.01542E+01 -1.06713E-01  8.62393E-01  9.64318E-03 -3.59033E-02  8.43196E-05  1.36165E-05 -2.49601E-05  1.12725E-02  2.70016E+00 -4.70350E-03  4.97880E-05 -3.61274E-05 -3.91203E-06  1.50000E+01
  2.00839E+01  1.97073E+01  2.01656E+01 -7.02338E-02  9.07443E-01  3.36691E-03 -1.25797E-02  1.14196E-04  3.78295E-05 -4.58658E-05  1.05230E-02  2.80888E+00 -4.58092E-03  5.24840E-05 -4.25720E-05 -4.05402E-06  1.50000E+01