 TITLE="3D TRIANGULAR SURFACE DATA"
VARIABLES="X","Y","Z","U","V","W","P", "Fex", "Fey", "Fez","Finx","Finy","Finz","WSSx","WSSy","WSSz","AMForce"
 ZONE T="unstruc"N=        1757 E=        3355 F=FEPOINT  ET=TRIANGLE
  2.03311E+01  2.01498E+01  2.00977E+01  2.87055E-01 -1.27291E+00  7.88501E-04  1.18038E+00 -5.82976E-04  5.57445E-04  1.43099E-04  3.19799E-03 -5.26531E+00  4.29628E-04  3.00841E-05  3.62917E-05 -3.31773E-06  1.50000E+01
  2.03461E+01  2.01673E+01  2.00978E+01  2.95071E-01 -1.27721E+00  3.36658E-04  1.17777E+00 -2.73710E-04  2.60875E-04  6.55268E-05  8.48215E-04 -2.47747E+00 -5.10125E-04  1.41799E-05  1.71626E-05 -1.58768E-06  1.50000E+01
  2.03412E+01  2.01668E+01  2.00766E+01  2.94408E-01 -1.27353E+00  2.92173E-04  1.15623E+00 -4.06827E-04  3.89168E-04  7.55115E-05  2.25076E-03 -3.65060E+00 -8.27397E-04  2.07058E-05  2.47108E-05 -2.04748E-06  1.50000E+01
  2.03322E+01  2.01409E+01  2.01288E+01  2.83858E-01 -1.27708E+00  9.35259E-04  1.16457E+00 -4.88793E-04  4.65317E-04  1.56774E-04  2.32465E-03 -4.45532E+00  3.41418E-05  2.60617E-05  3.21037E-05 -3.09966E-06  1.50000E+01
  2.03455E+01  2.01601E+01  2.01190E+01  2.92735E-01 -1.27978E+00  6.45624E-04  1.17471E+00 -4.05111E-04  3.83549E-04  1.19133E-04  1.74930E-03 -3.64582E+00  5.55422E-04  2.11518E-05  2.60753E-05 -2.63498E-06  1.50000E+01
  2.03576E+01  2.01774E+01  2.01100E+01  2.99922E-01 -1.28129E+00  1.83142E-04  1.17956E+00 -3.47998E-04  3.30662E-04  9.25877E-05  1.49765E-03 -3.14154E+00 -2.70555E-04  1.81139E-05  2.21504E-05 -2.21161E-06  1.50000E+01
  2.03553E+01  2.01812E+01  2.00861E+01  3.00662E-01 -1.27772E+00  2.19156E-04  1.16938E+00 -3.49203E-04  3.33811E-04  7.14762E-05  1.71839E-03 -3.15133E+00  2.99882E-04  1.78047E-05  2.13489E-05 -1.89825E-06  1.50000E+01
  2.03378E+01  2.01677E+01  2.00496E+01  2.94257E-01 -1.27062E+00  3.23101E-04  1.16744E+00 -4.49927E-04  4.32203E-04  5.48749E-05  2.13070E-03 -3.96813E+00 -2.13599E-05  2.21582E-05  2.59487E-05 -1.53896E-06  1.50000E+01
  2.03256E+01  2.01508E+01  2.00662E+01  2.86752E-01 -1.26830E+00  6.87012E-04  1.15077E+00 -4.95296E-04  4.77157E-04  8.38943E-05  2.26107E-03 -4.46624E+00  5.17451E-04  2.51073E-05  2.96062E-05 -2.19907E-06  1.50000E+01
  2.03229E+01  2.01519E+01  2.00373E+01  2.86821E-01 -1.26580E+00  4.64106E-04  1.15418E+00 -4.70876E-04  4.54057E-04  4.48733E-05  2.13889E-03 -4.18995E+00  2.15151E-04  2.30642E-05  2.67661E-05 -1.16996E-06  1.50000E+01
  2.03476E+01  2.01529E+01  2.01452E+01  2.90573E-01 -1.28444E+00  6.84358E-04  1.16185E+00 -4.31213E-04  4.07063E-04  1.53675E-04  2.13722E-03 -3.93850E+00  2.98214E-04  2.32543E-05  2.91203E-05 -2.86982E-06  1.50000E+01
  2.03598E+01  2.01716E+01  2.01345E+01  2.98596E-01 -1.28558E+00  2.72388E-04  1.17485E+00 -4.02579E-04  3.80217E-04  1.30480E-04  2.05742E-03 -3.63433E+00  1.45779E-04  2.14180E-05  2.67192E-05 -2.79830E-06  1.50000E+01
  2.02994E+01  2.01129E+01  2.00969E+01  2.67526E-01 -1.26084E+00  1.18822E-03  1.14938E+00 -4.88447E-04  4.71510E-04  1.25773E-04  2.13030E-03 -4.47144E+00  1.06376E-04  2.58099E-05  3.07873E-05 -2.54304E-06  1.50000E+01
  2.02965E+01  2.01167E+01  2.00680E+01  2.68969E-01 -1.25748E+00  9.32853E-04  1.14843E+00 -4.80372E-04  4.65979E-04  8.73945E-05  2.19115E-03 -4.39382E+00  8.02261E-05  2.48465E-05  2.90629E-05 -1.86683E-06  1.50000E+01
  2.02833E+01  2.00982E+01  2.00822E+01  2.58629E-01 -1.25227E+00  1.14288E-03  1.13408E+00 -4.64988E-04  4.52411E-04  1.04478E-04  2.15479E-03 -4.27952E+00  7.98759E-05  2.45465E-05  2.88322E-05 -2.05681E-06  1.50000E+01
  2.03160E+01  2.01276E+01  2.01121E+01  2.76171E-01 -1.26919E+00  1.11025E-03  1.15404E+00 -5.24370E-04  5.02653E-04  1.51204E-04  2.40863E-03 -4.77709E+00  7.01295E-05  2.77508E-05  3.36424E-05 -3.07721E-06  1.50000E+01
  2.03028E+01  2.01074E+01  2.01254E+01  2.65342E-01 -1.26515E+00  1.37128E-03  1.12872E+00 -4.72081E-04  4.53442E-04  1.56327E-04  2.11742E-03 -4.37015E+00  1.04868E-04  2.58756E-05  3.15357E-05 -2.78996E-06  1.50000E+01
  2.03192E+01  2.01207E+01  2.01408E+01  2.73590E-01 -1.27400E+00  1.21696E-03  1.15495E+00 -4.69110E-04  4.47006E-04  1.69528E-04  2.22757E-03 -4.33878E+00  3.84325E-06  2.59047E-05  3.21246E-05 -2.98653E-06  1.50000E+01
  2.03128E+01  2.01324E+01  2.00824E+01  2.77779E-01 -1.26512E+00  9.41126E-04  1.16802E+00 -5.26113E-04  5.06769E-04  1.12851E-04  2.30383E-03 -4.78158E+00  1.15476E-04  2.70409E-05  3.20823E-05 -2.55087E-06  1.50000E+01
  2.03098E+01  2.01347E+01  2.00529E+01  2.78429E-01 -1.26200E+00  7.12512E-04  1.13804E+00 -4.82075E-04  4.66193E-04  6.68793E-05  2.22098E-03 -4.37288E+00  1.50327E-04  2.41646E-05  2.81470E-05 -1.51495E-06  1.50000E+01
  2.03689E+01  2.01942E+01  2.00981E+01  3.06006E-01 -1.28131E+00 -4.93142E-05  1.16911E+00 -3.82827E-04  3.65924E-04  8.83826E-05  2.18292E-03 -3.46536E+00  1.05769E-05  1.97317E-05  2.38612E-05 -2.42220E-06  1.50000E+01
  2.03666E+01  2.01973E+01  2.00726E+01  3.06387E-01 -1.27784E+00  3.03912E-05  1.17994E+00 -4.01587E-04  3.85339E-04  6.80145E-05  2.36626E-03 -3.58209E+00  1.86170E-04  2.03046E-05  2.41241E-05 -2.11717E-06  1.50000E+01
  2.03715E+01  2.01897E+01  2.01233E+01  3.05315E-01 -1.28563E+00 -1.46653E-04  1.19128E+00 -3.93876E-04  3.74048E-04  1.14793E-04  2.19139E-03 -3.57350E+00 -1.24491E-04  2.08809E-05  2.57580E-05 -2.71348E-06  1.50000E+01
  2.03523E+01  2.01828E+01  2.00610E+01  3.00816E-01 -1.27458E+00  1.51376E-04  1.18548E+00 -4.13553E-04  3.96158E-04  5.97775E-05  2.24655E-03 -3.65776E+00 -1.31740E-04  2.05867E-05  2.43243E-05 -1.83076E-06  1.50000E+01
  2.03646E+01  2.01992E+01  2.00463E+01  3.06523E-01 -1.27527E+00  4.15012E-06  1.21639E+00 -4.24165E-04  4.07999E-04  4.58641E-05  2.55456E-03 -3.76926E+00 -2.15644E-05  2.11675E-05  2.47864E-05 -1.62885E-06  1.50000E+01
  2.03080E+01  2.01360E+01  2.00241E+01  2.78744E-01 -1.26025E+00  4.11181E-04  1.13206E+00 -4.66151E-04  4.51141E-04  2.96467E-05  2.24858E-03 -4.19994E+00  1.18681E-04  2.27842E-05  2.62447E-05 -7.23182E-07  1.50000E+01
  2.03360E+01  2.01684E+01  2.00218E+01  2.94238E-01 -1.26900E+00  1.99063E-04  1.17519E+00 -4.64102E-04  4.46031E-04  2.49995E-05  2.24082E-03 -4.02755E+00  7.29654E-05  2.21133E-05  2.56014E-05 -8.01769E-07  1.50000E+01
  2.03216E+01  2.01524E+01  2.00089E+01  2.86846E-01 -1.26471E+00  1.92211E-04  1.15703E+00 -4.66224E-04  4.49504E-04  1.08675E-05  2.26953E-03 -4.10604E+00  1.13982E-04  2.22883E-05  2.56868E-05 -3.19563E-07  1.50000E+01
  2.03068E+01  2.01005E+01  2.01530E+01  2.62533E-01 -1.27040E+00  1.47507E-03  1.12642E+00 -4.49016E-04  4.28057E-04  1.80689E-04  2.16944E-03 -4.21470E+00  6.34528E-05  2.54735E-05  3.18232E-05 -2.92268E-06  1.50000E+01
  2.03233E+01  2.01132E+01  2.01679E+01  2.70689E-01 -1.27988E+00  1.26153E-03  1.14814E+00 -4.40383E-04  4.16373E-04  1.89461E-04  2.18557E-03 -4.15784E+00  3.92659E-05  2.52923E-05  3.20748E-05 -2.91586E-06  1.50000E+01
  2.06281E+01  2.03760E+01  1.96775E+01  1.32826E-01 -1.14959E+00 -1.12596E-01  8.46132E-01 -1.94746E-04  3.15097E-04 -1.17791E-04  1.15494E-02 -3.64070E+00  2.46262E-03  3.01997E-05  3.14034E-05  1.49070E-05  1.50000E+01
  2.06096E+01  2.03673E+01  1.96914E+01  1.61687E-01 -1.16981E+00 -8.97939E-02  1.02799E+00 -2.36735E-04  3.46081E-04 -1.37505E-04  1.42693E-02 -3.70096E+00  4.54602E-03  2.95134E-05  3.20017E-05  1.36240E-05  1.50000E+01
  2.06226E+01  2.03837E+01  1.97045E+01  9.67109E-02 -1.08344E+00 -1.18654E-01  8.26785E-01 -1.92267E-04  3.32255E-04 -1.06249E-04  9.30260E-03 -3.43047E+00  2.86303E-04  3.15512E-05  3.00223E-05  1.53384E-05  1.50000E+01
  2.06041E+01  2.03751E+01  1.97183E+01  1.30743E-01 -1.11343E+00 -9.43672E-02  9.99875E-01 -2.35214E-04  3.66346E-04 -1.23390E-04  1.31050E-02 -3.52330E+00  2.96348E-03  3.06458E-05  3.09007E-05  1.45875E-05  1.50000E+01
  2.06178E+01  2.03905E+01  1.97318E+01  5.94177E-02 -1.01427E+00 -1.22403E-01  9.76317E-01 -1.97776E-04  3.63523E-04 -9.93525E-05  5.90073E-03 -3.21021E+00 -2.16623E-03  3.28411E-05  2.81052E-05  1.47040E-05  1.50000E+01
  2.06856E+01  2.03996E+01  1.96373E+01  5.90561E-02 -1.10515E+00 -1.84374E-01  4.41764E-01 -1.05200E-04  2.44189E-04 -7.67952E-05  3.76997E-03 -3.50382E+00 -4.77017E-03  3.51827E-05  3.09551E-05  1.68348E-05  1.50000E+01
  2.06661E+01  2.03922E+01  1.96505E+01  8.03677E-02 -1.11565E+00 -1.60726E-01  6.33959E-01 -1.29696E-04  2.64553E-04 -8.78664E-05  5.68199E-03 -3.53659E+00 -2.63771E-03  3.34283E-05  3.08725E-05  1.60446E-05  1.50000E+01
  2.06801E+01  2.04070E+01  1.96641E+01  9.02521E-03 -1.01009E+00 -1.95210E-01  5.43297E-01 -1.00302E-04  2.52953E-04 -6.73225E-05 -2.55661E-04 -3.19988E+00 -7.58956E-03  3.64123E-05  2.84416E-05  1.56858E-05  1.50000E+01
  2.03747E+01  2.01840E+01  2.01487E+01  3.04366E-01 -1.29095E+00 -2.26284E-04  1.17905E+00 -4.12938E-04  3.89015E-04  1.44734E-04  2.49859E-03 -3.76313E+00  1.64245E-05  2.21254E-05  2.77826E-05 -2.74916E-06  1.50000E+01
  2.06753E+01  2.04134E+01  1.96913E+01 -4.10565E-02 -9.09244E-01 -2.01687E-01  5.34349E-01 -6.94615E-05  2.14921E-04 -4.29492E-05 -4.85378E-03 -2.87594E+00 -1.01071E-02  3.70897E-05  2.54385E-05  1.41753E-05  1.50000E+01
  2.06950E+01  2.04203E+01  1.96781E+01 -6.61895E-02 -8.87696E-01 -2.27272E-01  2.48673E-01 -4.27697E-05  1.78246E-04 -3.29182E-05 -5.45255E-03 -2.80719E+00 -1.08393E-02  3.98697E-05  2.57345E-05  1.29014E-05  1.50000E+01
  2.03774E+01  2.02155E+01  2.00320E+01  3.11231E-01 -1.27519E+00 -1.14886E-04  1.21895E+00 -4.11465E-04  3.99810E-04  3.00538E-05  2.87167E-03 -3.81354E+00 -3.22088E-05  2.16911E-05  2.51878E-05 -1.32181E-06  1.50000E+01
  2.03634E+01  2.02001E+01  2.00193E+01  3.06513E-01 -1.27384E+00 -3.45332E-05  1.22936E+00 -4.29586E-04  4.14525E-04  1.91485E-05  2.59129E-03 -3.86649E+00 -3.87913E-05  2.14031E-05  2.48082E-05 -8.49638E-07  1.50000E+01
  2.03354E+01  2.01333E+01  2.01563E+01  2.81191E-01 -1.28248E+00  9.76308E-04  1.15858E+00 -4.46087E-04  4.21717E-04  1.74851E-04  2.10638E-03 -4.14348E+00  4.42586E-05  2.48502E-05  3.13026E-05 -2.94934E-06  1.50000E+01
  2.03398E+01  2.01255E+01  2.01827E+01  2.78442E-01 -1.28902E+00  9.35218E-04  1.14753E+00 -4.30692E-04  4.03222E-04  1.96890E-04  2.28492E-03 -4.07747E+00  7.59135E-05  2.46848E-05  3.17428E-05 -2.81152E-06  1.50000E+01
  2.03514E+01  2.01455E+01  2.01714E+01  2.88343E-01 -1.29053E+00  6.06860E-04  1.16455E+00 -4.28687E-04  4.01506E-04  1.80161E-04  2.28160E-03 -3.99152E+00  1.43076E-04  2.38616E-05  3.04655E-05 -2.80194E-06  1.50000E+01
  2.03074E+01  2.01361E+01  1.99957E+01  2.78729E-01 -1.25974E+00  6.72172E-05  1.13243E+00 -4.57440E-04  4.42523E-04 -4.71200E-06  2.29885E-03 -4.10762E+00  6.53867E-05  2.20557E-05  2.53259E-05  9.43918E-08  1.50000E+01
  2.03354E+01  2.01683E+01  1.99938E+01  2.94124E-01 -1.26861E+00 -4.94625E-06  1.17725E+00 -4.65430E-04  4.47303E-04 -6.78643E-06  2.36490E-03 -4.01993E+00  4.54799E-05  2.18819E-05  2.52566E-05  2.27935E-07  1.50000E+01
  2.03215E+01  2.01518E+01  1.99808E+01  2.86624E-01 -1.26484E+00 -1.08032E-04  1.15738E+00 -4.59516E-04  4.42941E-04 -2.20650E-05  2.33227E-03 -4.05254E+00  4.13181E-05  2.19765E-05  2.53470E-05  5.33332E-07  1.50000E+01
  2.06289E+01  2.04093E+01  1.97735E+01 -5.95307E-02 -8.08043E-01 -1.47081E-01  1.38922E+00 -1.54218E-04  3.75027E-04 -6.65825E-05 -9.23377E-03 -2.54681E+00 -1.00799E-02  3.35403E-05  2.09432E-05  1.13690E-05  1.50000E+01
  2.06482E+01  2.04164E+01  1.97599E+01 -9.97810E-02 -7.49316E-01 -1.73383E-01  8.21227E-01 -1.15821E-04  3.32811E-04 -5.21344E-05 -1.25345E-02 -2.35811E+00 -1.21749E-02  3.48840E-05  1.95651E-05  1.00568E-05  1.50000E+01
  2.06325E+01  2.04044E+01  1.97457E+01 -1.94203E-02 -8.91757E-01 -1.49970E-01  9.94756E-01 -1.51271E-04  3.41288E-04 -7.27891E-05 -3.88111E-03 -2.81777E+00 -8.05392E-03  3.38653E-05  2.37495E-05  1.28136E-05  1.50000E+01
  2.03833E+01  2.02075E+01  2.01111E+01  3.10838E-01 -1.28443E+00 -4.26556E-04  1.18761E+00 -4.01344E-04  3.84424E-04  1.02941E-04  2.75486E-03 -3.68237E+00 -9.75352E-05  2.15154E-05  2.62029E-05 -2.78376E-06  1.50000E+01
  2.01147E+01  1.98543E+01  2.01911E+01  8.07377E-02 -1.12937E+00 -1.36628E-04  8.80096E-01 -1.64726E-04  2.30319E-04  1.32716E-04  1.79229E-03 -3.54630E+00 -3.29723E-04  4.24873E-05  4.93271E-05 -2.09741E-06  1.50000E+01
  2.01030E+01  1.98330E+01  2.02018E+01  6.30358E-02 -1.11709E+00 -1.58929E-04  1.20289E+00 -8.55408E-05  1.79803E-04  9.19337E-05  1.42555E-03 -3.50874E+00 -4.00725E-04  5.43398E-05  6.17877E-05 -1.49134E-06  1.50000E+01
  2.01213E+01  1.98432E+01  2.02146E+01  7.25655E-02 -1.13441E+00 -9.31155E-05  8.25409E-01 -1.16646E-04  2.15619E-04  1.22843E-04  1.28214E-03 -3.57246E+00 -3.47748E-04  5.96510E-05  6.94682E-05 -1.68864E-06  1.50000E+01
  2.06875E+01  2.04297E+01  1.97333E+01 -1.65664E-01 -6.58062E-01 -2.24676E-01  4.13714E-01 -1.61994E-06  9.87938E-05 -8.00591E-06 -1.26866E-02 -2.06700E+00 -1.20974E-02  3.60572E-05  1.81118E-05  8.62465E-06  1.50000E+01
  2.07073E+01  2.04362E+01  1.97201E+01 -1.92876E-01 -6.28038E-01 -2.50561E-01 -2.45190E-01  3.12826E-05 -2.00277E-05  8.89862E-06 -1.08108E-01 -8.12487E-01 -5.40129E-02  1.83335E-05  9.21170E-06  4.10509E-06  1.50000E+01
  2.06909E+01  2.04255E+01  1.97056E+01 -1.17860E-01 -7.73586E-01 -2.29035E-01  1.91366E-01  6.18065E-06  8.41369E-05 -5.75845E-06 -9.50977E-03 -2.43957E+00 -1.19996E-02  3.87287E-05  2.20163E-05  1.06901E-05  1.50000E+01
  2.06366E+01  2.03986E+01  1.97181E+01  2.22807E-02 -9.74663E-01 -1.48814E-01  7.49772E-01 -1.47193E-04  3.10612E-04 -7.76804E-05  1.19054E-03 -3.08460E+00 -5.44435E-03  3.32689E-05  2.63852E-05  1.45467E-05  1.50000E+01
  2.06517E+01  2.04117E+01  1.97321E+01 -5.67865E-02 -8.44641E-01 -1.76765E-01  6.25707E-01 -1.04390E-04  2.79324E-04 -5.25489E-05 -7.60903E-03 -2.66670E+00 -1.06053E-02  3.42818E-05  2.21142E-05  1.24819E-05  1.50000E+01
  2.03077E+01  2.01349E+01  1.99677E+01  2.78320E-01 -1.26037E+00 -2.87574E-04  1.13597E+00 -4.50381E-04  4.35899E-04 -3.76299E-05  2.28703E-03 -4.05335E+00  1.84452E-06  2.21024E-05  2.55090E-05  8.41535E-07  1.50000E+01
  2.02944E+01  2.01189E+01  2.00391E+01  2.69775E-01 -1.25522E+00  6.22163E-04  1.12397E+00 -4.64111E-04  4.51534E-04  4.88693E-05  2.21587E-03 -4.25072E+00  8.74543E-05  2.34485E-05  2.70163E-05 -1.01469E-06  1.50000E+01
  2.02933E+01  2.01198E+01  2.00105E+01  2.70086E-01 -1.25413E+00  2.60841E-04  1.12076E+00 -4.53872E-04  4.41709E-04  1.32308E-05  2.26246E-03 -4.14862E+00  6.27763E-05  2.25624E-05  2.58328E-05 -3.03197E-07  1.50000E+01
  2.06723E+01  2.03837E+01  1.96241E+01  1.24256E-01 -1.19558E+00 -1.48817E-01  5.53640E-01 -1.30256E-04  2.50850E-04 -9.85338E-05  8.21116E-03 -3.79020E+00 -1.61785E-04  3.26832E-05  3.27414E-05  1.51707E-05  1.50000E+01
  2.05993E+01  2.03820E+01  1.97457E+01  9.85758E-02 -1.05514E+00 -9.71012E-02  1.06884E+00 -2.37883E-04  3.91694E-04 -1.13018E-04  1.09153E-02 -3.33746E+00  1.06186E-03  3.14796E-05  2.91876E-05  1.46396E-05  1.50000E+01
  2.06136E+01  2.03965E+01  1.97594E+01  2.19803E-02 -9.43208E-01 -1.23228E-01  1.24816E+00 -1.98568E-04  3.90267E-04 -9.04684E-05  1.56076E-03 -2.98195E+00 -4.58779E-03  3.33634E-05  2.57220E-05  1.40099E-05  1.50000E+01
  2.02809E+01  2.01014E+01  2.00537E+01  2.59973E-01 -1.24960E+00  8.23242E-04  1.13769E+00 -4.58950E-04  4.48263E-04  6.78726E-05  2.19928E-03 -4.22584E+00  6.13575E-05  2.37319E-05  2.73782E-05 -1.18570E-06  1.50000E+01
  2.02656E+01  2.00860E+01  2.00396E+01  2.50604E-01 -1.24138E+00  6.46690E-04  1.12400E+00 -4.44021E-04  4.36731E-04  4.98796E-05  2.23155E-03 -4.11806E+00  3.93266E-05  2.31317E-05  2.63959E-05 -8.28670E-07  1.50000E+01
  2.02675E+01  2.00834E+01  2.00678E+01  2.49421E-01 -1.24343E+00  1.00968E-03  1.11684E+00 -4.48715E-04  4.40527E-04  8.54534E-05  2.21439E-03 -4.15811E+00  6.16966E-05  2.40060E-05  2.77933E-05 -1.63797E-06  1.50000E+01
  2.03808E+01  2.02113E+01  2.00851E+01  3.11119E-01 -1.28032E+00 -2.53224E-04  1.18752E+00 -4.06690E-04  3.91671E-04  7.94816E-05  2.78896E-03 -3.67560E+00 -2.46806E-06  2.12801E-05  2.54574E-05 -2.64124E-06  1.50000E+01
  2.03788E+01  2.02139E+01  2.00588E+01  3.11235E-01 -1.27722E+00 -1.43095E-04  1.20741E+00 -4.13482E-04  3.99923E-04  5.56335E-05  2.84443E-03 -3.74233E+00  6.31333E-05  2.15397E-05  2.53353E-05 -2.17874E-06  1.50000E+01
  2.03905E+01  2.02315E+01  2.00179E+01  3.14699E-01 -1.27405E+00 -1.59498E-04  1.16536E+00 -3.97316E-04  3.90519E-04  1.54613E-05  3.24249E-03 -3.83121E+00 -4.72962E-05  2.21023E-05  2.54451E-05 -9.11982E-07  1.50000E+01
  2.03767E+01  2.02160E+01  2.00049E+01  3.11156E-01 -1.27435E+00 -1.05592E-04  1.20367E+00 -4.12733E-04  4.01861E-04  4.27827E-06  2.84367E-03 -3.86020E+00 -6.27401E-05  2.15864E-05  2.49037E-05 -1.95286E-07  1.50000E+01
  2.06559E+01  2.04062E+01  1.97046E+01 -1.14764E-02 -9.38858E-01 -1.75445E-01  7.90119E-01 -1.03238E-04  2.58385E-04 -5.77188E-05 -2.53515E-03 -2.97081E+00 -8.21948E-03  3.46555E-05  2.54887E-05  1.42803E-05  1.50000E+01
  2.06606E+01  2.03996E+01  1.96773E+01  3.47050E-02 -1.02973E+00 -1.69876E-01  7.80180E-01 -1.09807E-04  2.51164E-04 -6.76839E-05  1.99044E-03 -3.26279E+00 -5.45960E-03  3.47020E-05  2.87385E-05  1.57593E-05  1.50000E+01
  2.05914E+01  2.03582E+01  1.97054E+01  1.90488E-01 -1.19017E+00 -6.89274E-02  1.03621E+00 -2.59258E-04  3.52065E-04 -1.43554E-04  1.62018E-02 -3.76128E+00  5.96142E-03  2.84539E-05  3.24415E-05  1.29109E-05  1.50000E+01
  2.02903E+01  2.00875E+01  2.01381E+01  2.53964E-01 -1.26061E+00  1.57735E-03  1.12059E+00 -4.43037E-04  4.27135E-04  1.65650E-04  2.15783E-03 -4.20513E+00  1.06613E-04  2.53536E-05  3.10832E-05 -2.69873E-06  1.50000E+01
  2.02781E+01  2.00674E+01  2.01506E+01  2.41842E-01 -1.25554E+00  1.71573E-03  1.09288E+00 -4.20252E-04  4.07664E-04  1.75624E-04  2.16717E-03 -4.13019E+00  1.04955E-04  2.55359E-05  3.13868E-05 -2.47092E-06  1.50000E+01
  2.02948E+01  2.00802E+01  2.01651E+01  2.50685E-01 -1.26622E+00  1.67122E-03  1.10649E+00 -4.28905E-04  4.10525E-04  1.90825E-04  2.20396E-03 -4.14987E+00  9.27294E-05  2.54842E-05  3.20354E-05 -2.88973E-06  1.50000E+01
  2.06713E+01  2.04187E+01  1.97188E+01 -8.95603E-02 -8.04596E-01 -2.03123E-01  4.62963E-01 -6.23483E-05  2.16998E-04 -3.43669E-05 -9.41175E-03 -2.53831E+00 -1.19024E-02  3.65803E-05  2.21307E-05  1.27895E-05  1.50000E+01
  2.06156E+01  2.03588E+01  1.96648E+01  1.90769E-01 -1.22370E+00 -8.39252E-02  8.49214E-01 -2.41504E-04  3.33017E-04 -1.53999E-04  1.44427E-02 -3.87104E+00  5.65828E-03  2.87530E-05  3.29156E-05  1.20843E-05  1.50000E+01
  2.05975E+01  2.03496E+01  1.96788E+01  2.14609E-01 -1.23601E+00 -6.46862E-02  1.03013E+00 -2.68106E-04  3.44634E-04 -1.63353E-04  1.56371E-02 -3.90508E+00  6.60766E-03  2.83237E-05  3.33598E-05  1.07710E-05  1.50000E+01
  2.03561E+01  2.01376E+01  2.01972E+01  2.85843E-01 -1.29777E+00  4.54824E-04  1.15373E+00 -4.26002E-04  3.94155E-04  2.05222E-04  2.47832E-03 -4.03658E+00  9.50025E-05  2.42065E-05  3.14900E-05 -2.61137E-06  1.50000E+01
  2.03674E+01  2.01577E+01  2.01858E+01  2.95144E-01 -1.29809E+00  4.95913E-05  1.16690E+00 -4.24123E-04  3.93488E-04  1.88861E-04  2.57456E-03 -3.96151E+00  9.97973E-05  2.35595E-05  3.03474E-05 -2.55431E-06  1.50000E+01
  2.03449E+01  2.01169E+01  2.02086E+01  2.75317E-01 -1.29661E+00  8.11404E-04  1.13761E+00 -4.22403E-04  3.90725E-04  2.19416E-04  2.38473E-03 -4.09325E+00  7.14094E-05  2.46816E-05  3.23272E-05 -2.50279E-06  1.50000E+01
  2.03357E+01  2.01671E+01  1.99661E+01  2.93785E-01 -1.26938E+00 -2.32227E-04  1.17362E+00 -4.59727E-04  4.42300E-04 -3.83639E-05  2.37038E-03 -4.00551E+00 -1.54291E-05  2.21391E-05  2.56940E-05  1.09912E-06  1.50000E+01
  2.06469E+01  2.03843E+01  1.96639E+01  1.05288E-01 -1.13100E+00 -1.36534E-01  8.75193E-01 -1.44838E-04  2.68098E-04 -9.26063E-05  8.44919E-03 -3.58453E+00 -9.08511E-05  3.16598E-05  3.08888E-05  1.51505E-05  1.50000E+01
  2.06531E+01  2.03758E+01  1.96374E+01  1.44378E-01 -1.20229E+00 -1.26805E-01  6.63815E-01 -1.60310E-04  2.73140E-04 -1.13338E-04  1.02680E-02 -3.80953E+00  2.00228E-03  3.14209E-05  3.28171E-05  1.39949E-05  1.50000E+01
  2.06342E+01  2.03675E+01  1.96510E+01  1.66940E-01 -1.21208E+00 -1.04890E-01  8.16892E-01 -1.90816E-04  2.93089E-04 -1.28063E-04  1.24856E-02 -3.83835E+00  4.02762E-03  3.00423E-05  3.30285E-05  1.33221E-05  1.50000E+01
  2.05797E+01  2.03401E+01  1.96930E+01  2.37334E-01 -1.24809E+00 -4.77395E-02  1.12162E+00 -2.84258E-04  3.44536E-04 -1.65716E-04  1.60135E-02 -3.93886E+00  6.93789E-03  2.75527E-05  3.36708E-05  1.01219E-05  1.50000E+01
  2.03981E+01  2.02207E+01  2.01246E+01  3.14909E-01 -1.28684E+00 -8.80154E-04  1.17518E+00 -4.07088E-04  3.91101E-04  1.14965E-04  3.30734E-03 -3.78896E+00 -2.24129E-04  2.23049E-05  2.73369E-05 -3.01168E-06  1.50000E+01
  2.03863E+01  2.02025E+01  2.01369E+01  3.10372E-01 -1.28956E+00 -6.22240E-04  1.18834E+00 -4.10919E-04  3.90108E-04  1.30205E-04  2.81685E-03 -3.76066E+00 -1.57474E-04  2.21340E-05  2.74821E-05 -2.86588E-06  1.50000E+01
  2.02864E+01  2.00935E+01  2.01105E+01  2.56628E-01 -1.25596E+00  1.39968E-03  1.11597E+00 -4.56766E-04  4.42780E-04  1.37093E-04  2.16029E-03 -4.26823E+00  1.02370E-04  2.50081E-05  2.99924E-05 -2.48119E-06  1.50000E+01
  2.02702E+01  2.00795E+01  2.00958E+01  2.47569E-01 -1.24650E+00  1.31990E-03  1.11141E+00 -4.42493E-04  4.33324E-04  1.18504E-04  2.18973E-03 -4.17270E+00  8.51514E-05  2.45354E-05  2.89111E-05 -2.07959E-06  1.50000E+01
  2.01097E+01  1.98212E+01  2.02248E+01  5.43000E-02 -1.12188E+00  0.00000E+00  6.27885E-01  1.73595E-05  4.73403E-05  1.01660E-05  1.01003E+01  4.65566E+01 -4.02248E+01  3.30067E-05  3.70469E-05  8.27506E-08  1.50000E+01
  2.07148E+01  2.04272E+01  1.96651E+01 -8.71239E-02 -8.75143E-01 -2.52288E-01  3.33448E-01 -2.15996E-05  9.50295E-05 -1.70863E-05 -9.83299E-02 -1.25045E+00 -6.42846E-02  2.21130E-05  1.44829E-05  7.50458E-06  1.50000E+01
  2.06998E+01  2.04141E+01  1.96510E+01 -1.23177E-02 -9.97497E-01 -2.19653E-01  2.82385E-01 -6.48960E-05  2.12314E-04 -4.89570E-05 -1.08605E-03 -3.15996E+00 -8.78527E-03  4.06667E-05  3.03093E-05  1.68578E-05  1.50000E+01
  2.06041E+01  2.03403E+01  1.96526E+01  2.36813E-01 -1.28022E+00 -5.98179E-02  9.37655E-01 -2.75697E-04  3.36204E-04 -1.84324E-04  1.45282E-02 -4.04468E+00  6.85948E-03  2.76639E-05  3.33033E-05  8.33928E-06  1.50000E+01
  2.05862E+01  2.03309E+01  1.96667E+01  2.55237E-01 -1.28595E+00 -4.43460E-02  9.86974E-01 -2.95705E-04  3.41052E-04 -1.89423E-04  1.46120E-02 -4.05788E+00  6.95910E-03  2.74092E-05  3.36983E-05  7.30795E-06  1.50000E+01
  2.02932E+01  2.01194E+01  1.99823E+01  2.69914E-01 -1.25417E+00 -1.25968E-04  1.12155E+00 -4.46659E-04  4.34515E-04 -2.06641E-05  2.27921E-03 -4.07757E+00  1.54863E-05  2.21733E-05  2.54018E-05  4.60928E-07  1.50000E+01
  2.03900E+01  2.01966E+01  2.01627E+01  3.09691E-01 -1.29579E+00 -8.41791E-04  1.17161E+00 -4.19513E-04  3.94100E-04  1.57551E-04  2.95745E-03 -3.85250E+00 -1.21383E-04  2.27219E-05  2.88009E-05 -2.91979E-06  1.50000E+01
  2.03115E+01  2.00927E+01  2.01797E+01  2.59215E-01 -1.27664E+00  1.50911E-03  1.13735E+00 -4.30200E-04  4.07083E-04  2.02599E-04  2.23780E-03 -4.14111E+00  6.80791E-05  2.54834E-05  3.25699E-05 -2.91169E-06  1.50000E+01
  2.03283E+01  2.01049E+01  2.01942E+01  2.67420E-01 -1.28679E+00  1.22913E-03  1.12581E+00 -4.24590E-04  3.97538E-04  2.10553E-04  2.27393E-03 -4.11470E+00  6.94831E-05  2.51473E-05  3.25879E-05 -2.75576E-06  1.50000E+01
  2.01264E+01  1.98752E+01  2.01800E+01  9.79336E-02 -1.14102E+00 -1.03860E-05  7.86142E-01 -1.90677E-04  2.42175E-04  1.34331E-04  1.86570E-03 -3.59174E+00 -2.56130E-04  3.57048E-05  4.08922E-05 -1.02138E-06  1.50000E+01
  2.01087E+01  1.98640E+01  2.01670E+01  8.79274E-02 -1.12472E+00 -1.22381E-04  8.06140E-01 -1.82394E-04  2.37293E-04  1.21145E-04  2.14312E-03 -3.51835E+00 -2.85339E-04  3.71752E-05  4.15810E-05 -5.45653E-07  1.50000E+01
  2.06600E+01  2.03665E+01  1.96115E+01  1.80807E-01 -1.26840E+00 -1.15633E-01  6.87504E-01 -1.65855E-04  2.65875E-04 -1.30073E-04  1.09373E-02 -4.01796E+00  3.44561E-03  3.06185E-05  3.34175E-05  1.18737E-05  1.50000E+01
  2.02506E+01  2.00704E+01  2.00258E+01  2.40784E-01 -1.23279E+00  4.34653E-04  1.12619E+00 -4.33161E-04  4.28906E-04  3.26172E-05  2.23215E-03 -4.03756E+00  1.62031E-05  2.27119E-05  2.56837E-05 -5.13865E-07  1.50000E+01
  2.02520E+01  2.00685E+01  2.00537E+01  2.39828E-01 -1.23428E+00  8.17916E-04  1.11055E+00 -4.37765E-04  4.33191E-04  6.80062E-05  2.24196E-03 -4.06740E+00  4.01331E-05  2.35324E-05  2.68683E-05 -1.12171E-06  1.50000E+01
  2.03953E+01  2.02250E+01  2.00983E+01  3.14961E-01 -1.28197E+00 -6.11809E-04  1.17454E+00 -4.05814E-04  3.92801E-04  8.99344E-05  3.29646E-03 -3.75962E+00 -1.44601E-04  2.20439E-05  2.65317E-05 -3.01604E-06  1.50000E+01
  2.03930E+01  2.02283E+01  2.00718E+01  3.14915E-01 -1.27819E+00 -3.94893E-04  1.20206E+00 -4.04785E-04  3.94348E-04  6.52215E-05  3.29215E-03 -3.76548E+00 -6.72674E-05  2.21209E-05  2.61394E-05 -2.68283E-06  1.50000E+01
  2.02830E+01  2.00596E+01  2.01771E+01  2.37986E-01 -1.26148E+00  1.78377E-03  1.08340E+00 -4.07559E-04  3.92178E-04  1.99034E-04  2.11011E-03 -4.11234E+00  8.17274E-05  2.56687E-05  3.24349E-05 -2.75930E-06  1.50000E+01
  2.02715E+01  2.00387E+01  2.01891E+01  2.24470E-01 -1.25619E+00  1.80926E-03  1.06793E+00 -3.86942E-04  3.74644E-04  2.06141E-04  2.00330E-03 -4.07438E+00  5.89382E-05  2.60971E-05  3.33000E-05 -2.93102E-06  1.50000E+01
  2.02886E+01  2.00507E+01  2.02031E+01  2.33497E-01 -1.26835E+00  1.77077E-03  1.08633E+00 -3.92346E-04  3.74472E-04  2.17674E-04  2.03472E-03 -4.10513E+00  5.89770E-05  2.60963E-05  3.41149E-05 -3.28949E-06  1.50000E+01
  2.05686E+01  2.03211E+01  1.96810E+01  2.72063E-01 -1.29152E+00 -3.11697E-02  1.11247E+00 -3.11171E-04  3.42867E-04 -1.91352E-04  1.41128E-02 -4.07145E+00  6.64315E-03  2.68693E-05  3.39758E-05  6.90215E-06  1.50000E+01
  2.02794E+01  2.01031E+01  2.00252E+01  2.60702E-01 -1.24800E+00  4.56417E-04  1.10947E+00 -4.49598E-04  4.39986E-04  3.14667E-05  2.24547E-03 -4.15150E+00  4.68297E-05  2.29577E-05  2.62197E-05 -5.86901E-07  1.50000E+01
  2.02788E+01  2.01035E+01  1.99970E+01  2.60849E-01 -1.24749E+00  5.81746E-05  1.10715E+00 -4.42892E-04  4.33427E-04 -3.25748E-06  2.25953E-03 -4.08672E+00  1.71507E-05  2.24372E-05  2.55563E-05  7.45662E-08  1.50000E+01
  2.03914E+01  2.02304E+01  2.00450E+01  3.14811E-01 -1.27553E+00 -2.48066E-04  1.17994E+00 -3.98574E-04  3.90821E-04  3.98705E-05  3.26645E-03 -3.79617E+00 -2.61243E-05  2.22060E-05  2.58330E-05 -2.02519E-06  1.50000E+01
  2.06410E+01  2.03582E+01  1.96249E+01  1.98552E-01 -1.27065E+00 -9.61048E-02  7.90349E-01 -1.98668E-04  2.85857E-04 -1.46336E-04  1.24731E-02 -4.02199E+00  5.01996E-03  2.94658E-05  3.32711E-05  1.05469E-05  1.50000E+01
  2.06224E+01  2.03495E+01  1.96387E+01  2.17582E-01 -1.27488E+00 -7.72578E-02  8.57907E-01 -2.39399E-04  3.14652E-04 -1.67189E-04  1.37459E-02 -4.03232E+00  6.18460E-03  2.82590E-05  3.32621E-05  9.67809E-06  1.50000E+01
  2.02738E+01  2.00741E+01  2.01235E+01  2.45042E-01 -1.25055E+00  1.55979E-03  1.11988E+00 -4.31805E-04  4.20916E-04  1.48575E-04  2.19227E-03 -4.15689E+00  1.04139E-04  2.49173E-05  2.99344E-05 -2.24577E-06  1.50000E+01
  2.02574E+01  2.00604E+01  2.01091E+01  2.35788E-01 -1.24021E+00  1.44362E-03  1.08326E+00 -4.21726E-04  4.15656E-04  1.31985E-04  2.17722E-03 -4.09366E+00  8.34165E-05  2.45838E-05  2.89798E-05 -1.84132E-06  1.50000E+01
  2.04173E+01  2.02624E+01  1.99895E+01  3.16912E-01 -1.26749E+00 -2.69388E-05  1.08283E+00 -3.77406E-04  3.82570E-04 -8.76518E-06  4.75663E-03 -3.85252E+00  3.57287E-05  2.40344E-05  2.72502E-05  6.32458E-07  1.50000E+01
  2.04039E+01  2.02465E+01  1.99762E+01  3.16699E-01 -1.27200E+00  1.67573E-05  1.14731E+00 -3.91767E-04  3.90309E-04 -2.05618E-05  3.84586E-03 -3.87474E+00  1.24336E-05  2.32032E-05  2.65936E-05  1.19814E-06  1.50000E+01
  2.04038E+01  2.02471E+01  2.00037E+01  3.16699E-01 -1.27159E+00 -1.18352E-04  1.11670E+00 -3.87317E-04  3.85955E-04  2.75015E-06  3.84092E-03 -3.84510E+00 -2.62294E-05  2.30507E-05  2.63276E-05 -2.29920E-07  1.50000E+01
  2.06484E+01  2.03481E+01  1.95994E+01  2.27391E-01 -1.32532E+00 -8.67368E-02  7.44965E-01 -2.14047E-04  2.89858E-04 -1.72417E-04  1.17414E-02 -4.19385E+00  5.43703E-03  2.85496E-05  3.28532E-05  7.98367E-06  1.50000E+01
  2.04056E+01  2.02090E+01  2.01768E+01  3.14318E-01 -1.29998E+00 -1.52283E-03  1.18002E+00 -4.19219E-04  3.93292E-04  1.67250E-04  3.40569E-03 -3.90165E+00 -3.15608E-04  2.33104E-05  2.98414E-05 -3.17037E-06  1.50000E+01
  2.04015E+01  2.02154E+01  2.01508E+01  3.14715E-01 -1.29284E+00 -1.18312E-03  1.17357E+00 -4.17698E-04  3.96717E-04  1.42706E-04  3.35035E-03 -3.84176E+00 -2.88757E-04  2.29168E-05  2.86823E-05 -3.11029E-06  1.50000E+01
  2.02543E+01  2.00651E+01  2.00815E+01  2.38162E-01 -1.23676E+00  1.16077E-03  1.09114E+00 -4.31811E-04  4.27356E-04  1.01158E-04  2.20768E-03 -4.08764E+00  6.46962E-05  2.43843E-05  2.82812E-05 -1.73709E-06  1.50000E+01
  2.03058E+01  2.00625E+01  2.02172E+01  2.42326E-01 -1.28031E+00  1.61977E-03  1.07048E+00 -3.98319E-04  3.74922E-04  2.29877E-04  2.08575E-03 -4.12534E+00  5.30078E-05  2.58812E-05  3.45517E-05 -3.44254E-06  1.50000E+01
  2.03230E+01  2.00741E+01  2.02312E+01  2.50949E-01 -1.29205E+00  1.34515E-03  1.09224E+00 -4.00888E-04  3.72578E-04  2.40119E-04  2.15102E-03 -4.13841E+00  4.46500E-05  2.57024E-05  3.44988E-05 -2.85996E-06  1.50000E+01
  2.03169E+01  2.00839E+01  2.02057E+01  2.55358E-01 -1.28387E+00  1.46446E-03  1.10386E+00 -4.15831E-04  3.89801E-04  2.23045E-04  2.20226E-03 -4.12885E+00  6.35616E-05  2.55393E-05  3.35475E-05 -3.06135E-06  1.50000E+01
  2.00912E+01  1.98524E+01  2.01539E+01  7.76292E-02 -1.10837E+00 -1.74943E-04  8.01800E-01 -1.74122E-04  2.36034E-04  1.06092E-04  2.46274E-03 -3.43414E+00 -2.93121E-04  3.82581E-05  4.29447E-05 -1.64068E-06  1.50000E+01
  2.00790E+01  1.98325E+01  2.01652E+01  6.09092E-02 -1.09572E+00 -2.35920E-04  6.92876E-01 -1.18233E-04  1.99128E-04  8.75891E-05  2.25526E-03 -3.36965E+00 -3.82791E-04  4.54997E-05  5.11849E-05 -3.13280E-06  1.50000E+01