 TITLE="3D TRIANGULAR SURFACE DATA"
VARIABLES="X","Y","Z","U","V","W","P", "Fex", "Fey", "Fez","Finx","Finy","Finz","WSSx","WSSy","WSSz","AMForce"
 ZONE T="unstruc"N=        1757 E=        3355 F=FEPOINT  ET=TRIANGLE
  2.04668E+01  1.97001E+01  2.00929E+01 -3.18949E-02 -3.17710E-01 -3.45668E-02 -1.95419E-01  6.34219E-05 -1.23034E-04 -1.12792E-05  5.60440E-04 -1.31701E+00 -2.17832E-03  2.86078E-05  5.89236E-06  1.04028E-05  1.50000E+01
  2.04883E+01  1.97058E+01  2.00933E+01 -1.92084E-02 -3.47139E-01 -3.50487E-02 -2.71462E-01  3.42475E-05 -7.29242E-05 -8.02586E-06 -6.34961E-03 -6.76581E-01  1.37248E-03  1.29054E-05  2.76430E-06  5.08226E-06  1.50000E+01
  2.04837E+01  1.97076E+01  2.00729E+01 -1.95016E-02 -3.44533E-01 -2.86397E-02 -3.37752E-01  4.81499E-05 -1.02881E-04 -8.81474E-06 -8.31061E-06 -9.87205E-01 -5.16699E-03  1.80926E-05  4.28160E-06  5.58170E-06  1.50000E+01
  2.04636E+01  1.96934E+01  2.01226E+01 -3.59071E-02 -3.04872E-01 -4.51063E-02 -1.88893E-01  5.34006E-05 -1.02644E-04 -1.29395E-05 -5.42829E-04 -1.06517E+00 -4.18649E-03  2.46966E-05  4.32757E-06  1.04049E-05  1.50000E+01
  2.04845E+01  1.97010E+01  2.01135E+01 -2.14691E-02 -3.36088E-01 -4.14829E-02 -1.92622E-01  4.68264E-05 -9.23565E-05 -1.10480E-05  2.43283E-03 -9.58450E-01  5.14150E-03  1.97949E-05  3.74301E-06  8.75676E-06  1.50000E+01
  2.05033E+01  1.97081E+01  2.01050E+01 -9.09283E-03 -3.64521E-01 -4.02322E-02 -2.96473E-01  4.65330E-05 -1.02569E-04 -1.37899E-05 -1.92124E-03 -8.94716E-01 -2.46531E-03  1.56938E-05  3.32673E-06  6.44955E-06  1.50000E+01
  2.05029E+01  1.97118E+01  2.00821E+01 -7.78940E-03 -3.69486E-01 -3.16862E-02 -3.13687E-01  4.08449E-05 -8.57980E-05 -8.03507E-06 -2.39059E-03 -9.13711E-01  1.57064E-03  1.49565E-05  3.50636E-06  5.47196E-06  1.50000E+01
  2.04812E+01  1.97098E+01  2.00472E+01 -1.91829E-02 -3.44925E-01 -1.86895E-02 -3.21840E-01  5.77318E-05 -1.36570E-04 -8.00948E-06  4.89270E-04 -1.07773E+00 -1.72217E-03  1.88512E-05  4.83205E-06  3.77798E-06  1.50000E+01
  2.04625E+01  1.97032E+01  2.00628E+01 -3.26214E-02 -3.17900E-01 -2.33697E-02 -2.45771E-01  5.82640E-05 -1.25300E-04 -8.59867E-06  5.82665E-04 -1.12135E+00  8.42817E-04  2.33115E-05  5.40919E-06  6.33137E-06  1.50000E+01
  2.04605E+01  1.97052E+01  2.00354E+01 -3.25675E-02 -3.18834E-01 -1.32118E-02 -2.52077E-01  6.58068E-05 -1.63416E-04 -7.41956E-06  1.67014E-04 -1.05703E+00  6.99314E-05  2.11519E-05  5.31519E-06  3.46371E-06  1.50000E+01
  2.04829E+01  1.96950E+01  2.01385E+01 -2.45586E-02 -3.25432E-01 -5.09411E-02 -1.83546E-01  4.91033E-05 -9.50634E-05 -1.37188E-05  2.50044E-04 -9.99068E-01 -5.29903E-04  2.15721E-05  3.43594E-06  1.05062E-05  1.50000E+01
  2.05025E+01  1.97029E+01  2.01285E+01 -1.06615E-02 -3.55942E-01 -4.81317E-02 -2.25520E-01  4.91260E-05 -9.93537E-05 -1.40986E-05  2.15497E-03 -1.00681E+00  4.12871E-04  1.91509E-05  3.39769E-06  9.34378E-06  1.50000E+01
  2.04213E+01  1.96885E+01  2.00919E+01 -6.13105E-02 -2.57509E-01 -3.14235E-02 -1.99027E-01  5.27740E-05 -1.03889E-04 -1.08432E-05 -8.86139E-04 -9.14958E-01 -1.11187E-03  2.61859E-05  5.10619E-06  7.56988E-06  1.50000E+01
  2.04206E+01  1.96923E+01  2.00643E+01 -6.03763E-02 -2.62365E-01 -2.19714E-02 -1.99315E-01  5.21734E-05 -1.08493E-04 -8.19649E-06 -6.75347E-04 -9.18825E-01 -7.77735E-04  2.43940E-05  5.27270E-06  5.50135E-06  1.50000E+01
  2.04000E+01  1.96857E+01  2.00777E+01 -7.40372E-02 -2.33071E-01 -2.50520E-02 -1.81241E-01  4.97960E-05 -9.60755E-05 -8.42729E-06 -1.26674E-03 -7.97191E-01 -7.25046E-04  2.61486E-05  5.20737E-06  6.02812E-06  1.50000E+01
  2.04430E+01  1.96913E+01  2.01065E+01 -4.83087E-02 -2.82295E-01 -3.80508E-02 -1.88846E-01  5.49110E-05 -1.04204E-04 -1.17237E-05 -1.15532E-03 -1.06518E+00 -1.13185E-03  2.68783E-05  5.05857E-06  9.49573E-06  1.50000E+01
  2.04217E+01  1.96834E+01  2.01191E+01 -6.25416E-02 -2.50140E-01 -4.05298E-02 -1.62692E-01  4.85046E-05 -8.23238E-05 -8.81191E-06 -1.12564E-03 -8.65714E-01 -1.24799E-03  2.72242E-05  4.55628E-06  9.78243E-06  1.50000E+01
  2.04426E+01  1.96853E+01  2.01339E+01 -5.02211E-02 -2.72577E-01 -4.74546E-02 -1.76219E-01  5.02541E-05 -9.07409E-05 -1.17678E-05 -2.87331E-04 -9.30592E-01 -2.03298E-03  2.58901E-05  4.04729E-06  1.08143E-05  1.50000E+01
  2.04424E+01  1.96959E+01  2.00782E+01 -4.69126E-02 -2.88509E-01 -2.80780E-02 -1.72015E-01  5.46786E-05 -1.05253E-04 -7.78320E-06 -7.09740E-04 -1.09270E+00 -1.21044E-03  2.63401E-05  5.54437E-06  8.14605E-06  1.50000E+01
  2.04408E+01  1.96989E+01  2.00502E+01 -4.63452E-02 -2.91209E-01 -1.78659E-02 -1.73721E-01  5.25958E-05 -1.08580E-04 -5.36269E-06  1.44933E-04 -1.01129E+00 -2.04438E-04  2.35291E-05  5.45086E-06  5.24736E-06  1.50000E+01
  2.05211E+01  1.97153E+01  2.00938E+01  4.07280E-03 -3.91890E-01 -3.68533E-02 -2.38653E-01  4.71810E-05 -9.90472E-05 -1.00584E-05 -8.63711E-04 -1.06114E+00 -9.91382E-04  1.65502E-05  3.68365E-06  7.28112E-06  1.50000E+01
  2.05205E+01  1.97187E+01  2.00693E+01  5.69912E-03 -3.95753E-01 -2.76047E-02 -2.79540E-01  4.53533E-05 -9.25908E-05 -6.28633E-06 -7.42204E-04 -1.11123E+00  1.75572E-04  1.66104E-05  4.18201E-06  5.69697E-06  1.50000E+01
  2.05213E+01  1.97108E+01  2.01179E+01  2.34698E-03 -3.85576E-01 -4.57108E-02 -2.42410E-01  5.07930E-05 -1.08014E-04 -1.52279E-05 -3.46593E-04 -1.07287E+00 -1.79526E-03  1.74246E-05  3.49207E-06  8.09244E-06  1.50000E+01
  2.05011E+01  1.97143E+01  2.00581E+01 -6.38237E-03 -3.70628E-01 -2.33007E-02 -2.86715E-01  4.49935E-05 -9.30411E-05 -5.43830E-06  8.26565E-04 -1.06360E+00 -1.42879E-03  1.69253E-05  4.33786E-06  4.77822E-06  1.50000E+01
  2.05196E+01  1.97210E+01  2.00442E+01  7.21618E-03 -3.97590E-01 -1.82378E-02 -2.63582E-01  4.95492E-05 -1.05425E-04 -4.68779E-06  7.37083E-04 -1.17624E+00 -7.45557E-04  1.69598E-05  4.66650E-06  3.87757E-06  1.50000E+01
  2.04398E+01  1.97005E+01  2.00227E+01 -4.60662E-02 -2.92574E-01 -7.93736E-03 -1.81215E-01  5.72827E-05 -1.32314E-04 -3.32363E-06  1.78792E-04 -9.77650E-01  1.51164E-04  2.21822E-05  5.48556E-06  2.42392E-06  1.50000E+01
  2.04800E+01  1.97111E+01  2.00206E+01 -1.89661E-02 -3.45577E-01 -8.37287E-03 -3.02944E-01  7.23273E-05 -1.91964E-04 -5.31487E-06  4.24888E-04 -1.09813E+00 -5.00798E-04  1.87597E-05  5.03012E-06  1.84463E-06  1.50000E+01
  2.04597E+01  1.97061E+01  2.00084E+01 -3.24894E-02 -3.19296E-01 -3.09712E-03 -2.94491E-01  7.81144E-05 -2.13151E-04 -2.44775E-06  3.92799E-04 -1.03892E+00  2.22171E-04  2.03719E-05  5.29548E-06  9.35759E-07  1.50000E+01
  2.04221E+01  1.96773E+01  2.01455E+01 -6.37536E-02 -2.40625E-01 -4.91498E-02 -1.45308E-01  4.52431E-05 -6.84865E-05 -7.12451E-06 -5.24771E-04 -7.99973E-01 -1.72667E-03  2.74838E-05  3.79845E-06  1.14313E-05  1.50000E+01
  2.04427E+01  1.96785E+01  2.01600E+01 -5.20766E-02 -2.61646E-01 -5.59033E-02 -1.48091E-01  4.52724E-05 -7.07295E-05 -7.99291E-06  2.07884E-04 -8.52485E-01 -2.32627E-03  2.62175E-05  3.19955E-06  1.25746E-05  1.50000E+01
  2.08292E+01  1.97401E+01  1.96815E+01  1.44094E-01 -7.61952E-01  1.19741E-01  1.47621E-01 -3.49249E-06  9.08179E-05 -6.39266E-05  3.22382E-03 -2.40045E+00  1.33173E-03  2.30056E-05 -9.33622E-07 -1.37911E-05  1.50000E+01
  2.08095E+01  1.97418E+01  1.96959E+01  1.39629E-01 -7.35825E-01  1.12640E-01  8.27505E-02 -3.31206E-06  8.20837E-05 -5.67867E-05  2.83995E-03 -2.31576E+00  1.05919E-03  2.25537E-05 -1.93396E-07 -1.39617E-05  1.50000E+01
  2.08278E+01  1.97533E+01  1.97076E+01  1.58694E-01 -7.73037E-01  1.13467E-01  1.13076E-01 -9.95788E-07  7.89510E-05 -5.19378E-05  2.98917E-03 -2.43294E+00  1.10287E-03  2.22505E-05  1.08120E-07 -1.29502E-05  1.50000E+01
  2.08083E+01  1.97543E+01  1.97221E+01  1.53079E-01 -7.46901E-01  1.06077E-01  6.58719E-02  2.55505E-06  6.14603E-05 -4.21976E-05  2.62999E-03 -2.34874E+00  8.70467E-04  2.18179E-05  6.70437E-07 -1.33214E-05  1.50000E+01
  2.08266E+01  1.97654E+01  1.97341E+01  1.71676E-01 -7.82991E-01  1.05995E-01  3.52151E-02  5.85321E-06  5.31838E-05 -3.56242E-05  2.75917E-03 -2.46207E+00  8.85941E-04  2.15281E-05  9.45251E-07 -1.23349E-05  1.50000E+01
  2.08890E+01  1.97300E+01  1.96402E+01  1.49477E-01 -8.41547E-01  1.42135E-01  1.95144E-01  3.42303E-06  1.22844E-04 -9.44766E-05  3.88404E-03 -2.65835E+00  2.56717E-03  2.86881E-05 -2.50572E-06 -1.25028E-05  1.50000E+01
  2.08689E+01  1.97343E+01  1.96536E+01  1.49216E-01 -8.15136E-01  1.34701E-01  1.79965E-01 -8.76001E-07  1.14224E-04 -8.40194E-05  3.79602E-03 -2.57296E+00  2.15242E-03  2.60355E-05 -2.05915E-06 -1.30253E-05  1.50000E+01
  2.08873E+01  1.97454E+01  1.96653E+01  1.68345E-01 -8.52851E-01  1.37423E-01  1.08941E-01  4.54194E-06  1.01197E-04 -7.35878E-05  3.68451E-03 -2.69269E+00  2.18077E-03  2.69171E-05 -1.25676E-06 -1.17281E-05  1.50000E+01
  2.05214E+01  1.97052E+01  2.01423E+01  1.84702E-04 -3.77295E-01 -5.40166E-02 -1.92339E-01  4.69371E-05 -8.85635E-05 -1.27340E-05  1.35219E-03 -1.10146E+00 -6.42434E-04  1.93995E-05  3.20897E-06  1.03022E-05  1.50000E+01
  2.08857E+01  1.97598E+01  1.96910E+01  1.85329E-01 -8.63057E-01  1.31102E-01  1.25997E-01  5.19176E-06  8.72092E-05 -5.94490E-05  3.48345E-03 -2.72361E+00  1.82740E-03  2.62781E-05 -1.38100E-07 -1.12344E-05  1.50000E+01
  2.09057E+01  1.97563E+01  1.96771E+01  1.87192E-01 -8.89364E-01  1.39783E-01  1.41900E-02  1.23934E-05  7.32133E-05 -5.36355E-05  3.57738E-03 -2.80883E+00  2.16316E-03  2.71193E-05 -6.10879E-07 -1.04951E-05  1.50000E+01
  2.05385E+01  1.97275E+01  2.00306E+01  2.10591E-02 -4.24772E-01 -1.30602E-02 -3.34288E-01  5.13865E-05 -1.11138E-04 -3.81150E-06  8.98591E-04 -1.27214E+00 -4.47530E-04  1.63107E-05  4.77292E-06  2.27301E-06  1.50000E+01
  2.05190E+01  1.97223E+01  2.00184E+01  8.00210E-03 -3.98503E-01 -8.21037E-03 -2.43642E-01  5.53818E-05 -1.24989E-04 -2.47618E-06  1.02643E-03 -1.21108E+00 -6.82720E-04  1.71485E-05  4.94367E-06  1.68156E-06  1.50000E+01
  2.04628E+01  1.96868E+01  2.01490E+01 -3.85349E-02 -2.93832E-01 -5.39404E-02 -2.12862E-01  5.10422E-05 -9.69292E-05 -1.46749E-05  5.47048E-06 -9.51250E-01 -2.59610E-03  2.41664E-05  3.36910E-06  1.17205E-05  1.50000E+01
  2.04630E+01  1.96796E+01  2.01745E+01 -4.10382E-02 -2.82158E-01 -6.19893E-02 -1.49851E-01  4.47930E-05 -7.18681E-05 -9.37026E-06  6.28769E-04 -8.95557E-01 -2.46453E-03  2.47997E-05  2.64224E-06  1.31713E-05  1.50000E+01
  2.04827E+01  1.96882E+01  2.01637E+01 -2.74954E-02 -3.14574E-01 -5.96355E-02 -2.16104E-01  5.05082E-05 -9.69547E-05 -1.71178E-05  4.05189E-04 -9.75281E-01 -1.71856E-03  2.26163E-05  2.97165E-06  1.16301E-05  1.50000E+01
  2.04394E+01  1.97009E+01  1.99958E+01 -4.60499E-02 -2.92597E-01  1.82587E-03 -1.86952E-01  6.04686E-05 -1.47100E-04  6.10066E-07  2.89062E-04 -9.56918E-01  4.49097E-04  2.16234E-05  5.43934E-06 -2.86970E-07  1.50000E+01
  2.04794E+01  1.97114E+01  1.99941E+01 -1.90431E-02 -3.45432E-01  1.96631E-03 -3.22227E-01  7.91384E-05 -2.17534E-04  1.61846E-06  5.94119E-04 -1.09664E+00  7.83997E-05  1.86283E-05  5.04391E-06 -2.79731E-07  1.50000E+01
  2.04593E+01  1.97058E+01  1.99817E+01 -3.27473E-02 -3.18521E-01  6.92762E-03 -2.81198E-01  7.51412E-05 -2.03065E-04  4.98903E-06  4.60321E-04 -1.02317E+00  4.81629E-04  2.01059E-05  5.20204E-06 -1.45929E-06  1.50000E+01
  2.08438E+01  1.97870E+01  1.97733E+01  2.00956E-01 -8.26403E-01  9.62743E-02 -4.65832E-02  1.55512E-05  2.39778E-05 -1.89409E-05  2.60847E-03 -2.59658E+00  7.17694E-04  2.20410E-05  2.35128E-06 -1.07248E-05  1.50000E+01
  2.08633E+01  1.97866E+01  1.97585E+01  2.07970E-01 -8.53383E-01  1.05076E-01  1.84875E-02  1.48074E-05  3.25802E-05 -2.31217E-05  2.85160E-03 -2.68588E+00  9.39354E-04  2.31767E-05  2.06584E-06 -1.03277E-05  1.50000E+01
  2.08449E+01  1.97762E+01  1.97462E+01  1.89972E-01 -8.18508E-01  1.05678E-01  8.17274E-02  9.32634E-06  4.64530E-05 -3.11262E-05  2.83143E-03 -2.57423E+00  9.15485E-04  2.24583E-05  1.46056E-06 -1.15694E-05  1.50000E+01
  2.05400E+01  1.97188E+01  2.01063E+01  1.60546E-02 -4.14783E-01 -4.21542E-02 -2.28251E-01  4.88551E-05 -9.82961E-05 -1.10586E-05 -5.74422E-05 -1.19093E+00 -1.25693E-03  1.75569E-05  3.77999E-06  8.30052E-06  1.50000E+01
  2.01353E+01  1.96290E+01  2.01885E+01 -1.43715E-01  3.51825E-01  4.07776E-02  2.82664E-02  5.19041E-05  3.38069E-06 -5.01883E-06 -3.92016E-02  1.11431E+00  3.14759E-02  4.98283E-05 -1.33118E-05 -3.72097E-06  1.50000E+01
  2.01165E+01  1.96381E+01  2.02007E+01 -9.20571E-02  4.93213E-01  2.32737E-02 -1.13262E-01  4.89991E-05 -5.43573E-05  5.93326E-06 -1.50412E-02  1.57439E+00  1.51427E-02  6.17226E-05 -2.60601E-05 -3.91067E-06  1.50000E+01
  2.01372E+01  1.96339E+01  2.02132E+01 -1.00898E-01  4.49850E-01  2.50796E-02  3.76520E-02  7.20237E-05  2.38854E-05 -1.21678E-05 -2.33695E-02  1.43489E+00  2.15031E-02  5.90698E-05 -2.17995E-05 -2.51624E-06  1.50000E+01
  2.09027E+01  1.97836E+01  1.97294E+01  2.18706E-01 -9.07101E-01  1.23838E-01  4.93658E-02  1.43390E-05  5.71993E-05 -3.61120E-05  3.23514E-03 -2.86258E+00  1.53452E-03  2.63387E-05  1.71745E-06 -8.99549E-06  1.50000E+01
  2.09225E+01  1.97808E+01  1.97152E+01  2.22185E-01 -9.33348E-01  1.33569E-01 -1.24046E-02  8.50844E-06  2.71353E-05 -1.77870E-05  2.36287E-02 -1.53418E+00  1.22317E-02  1.39766E-05  7.19509E-07 -4.37616E-06  1.50000E+01
  2.09041E+01  1.97705E+01  1.97030E+01  2.03867E-01 -8.98735E-01  1.32532E-01  7.80881E-02  1.28629E-05  6.70628E-05 -4.54851E-05  3.40932E-03 -2.83736E+00  1.83464E-03  2.73672E-05  6.11381E-07 -1.00197E-05  1.50000E+01
  2.08462E+01  1.97644E+01  1.97195E+01  1.77423E-01 -8.09581E-01  1.14050E-01  1.09874E-01  1.81887E-06  7.45030E-05 -4.75962E-05  3.06491E-03 -2.54835E+00  1.15053E-03  2.28503E-05  5.73852E-07 -1.20763E-05  1.50000E+01
  2.08645E+01  1.97751E+01  1.97316E+01  1.95826E-01 -8.45381E-01  1.14343E-01  9.26382E-02  7.01857E-06  6.31656E-05 -3.98188E-05  3.08189E-03 -2.66259E+00  1.19068E-03  2.36265E-05  1.19917E-06 -1.09343E-05  1.50000E+01
  2.04391E+01  1.97000E+01  1.99693E+01 -4.64180E-02 -2.91076E-01  1.14043E-02 -1.75155E-01  5.61278E-05 -1.30968E-04  4.49966E-06  2.97213E-04 -9.38922E-01  6.08636E-04  2.15168E-05  5.23543E-06 -2.97947E-06  1.50000E+01
  2.04197E+01  1.96947E+01  2.00369E+01 -5.97587E-02 -2.65034E-01 -1.24160E-02 -1.49534E-01  4.90677E-05 -9.99906E-05 -3.79712E-06 -3.13269E-04 -8.99804E-01 -1.51806E-04  2.33725E-05  5.42867E-06  3.42477E-06  1.50000E+01
  2.04192E+01  1.96958E+01  2.00099E+01 -5.94552E-02 -2.66016E-01 -3.00657E-03 -1.61006E-01  5.22086E-05 -1.15314E-04 -1.32089E-06 -1.16968E-04 -8.82430E-01  2.47181E-04  2.27460E-05  5.47098E-06  9.75420E-07  1.50000E+01
  2.08706E+01  1.97187E+01  1.96287E+01  1.30049E-01 -8.02823E-01  1.38503E-01  2.26772E-01 -2.47071E-06  1.33722E-04 -1.04390E-04  4.04234E-03 -2.53561E+00  2.54544E-03  2.71089E-05 -3.16017E-06 -1.33637E-05  1.50000E+01
  2.08071E+01  1.97658E+01  1.97488E+01  1.64986E-01 -7.56821E-01  9.83996E-02 -1.62221E-02  1.08892E-05  3.38141E-05 -2.65021E-05  2.42434E-03 -2.37691E+00  7.01072E-04  2.12918E-05  1.43503E-06 -1.27607E-05  1.50000E+01
  2.08255E+01  1.97766E+01  1.97609E+01  1.83105E-01 -7.91850E-01  9.74524E-02 -1.01784E-03  1.21793E-05  3.13205E-05 -2.34749E-05  2.53286E-03 -2.48695E+00  6.98357E-04  2.13924E-05  1.88282E-06 -1.16415E-05  1.50000E+01
  2.03994E+01  1.96888E+01  2.00507E+01 -7.33036E-02 -2.36971E-01 -1.62051E-02 -2.05889E-01  5.00005E-05 -1.03227E-04 -6.60503E-06 -1.06154E-03 -8.02407E-01 -3.93340E-04  2.46928E-05  5.37048E-06  3.74810E-06  1.50000E+01
  2.03785E+01  1.96851E+01  2.00373E+01 -8.56448E-02 -2.12222E-01 -1.09562E-02 -1.59127E-01  4.53231E-05 -8.34646E-05 -3.33841E-06 -1.53231E-03 -7.02864E-01 -1.82689E-04  2.55861E-05  5.45970E-06  2.82199E-06  1.50000E+01
  2.03790E+01  1.96827E+01  2.00639E+01 -8.62505E-02 -2.09311E-01 -1.90805E-02 -1.48705E-01  4.34752E-05 -6.84415E-05 -3.40672E-06 -1.79241E-03 -6.98551E-01 -3.61084E-04  2.71674E-05  5.37438E-06  5.37212E-06  1.50000E+01
  2.05395E+01  1.97228E+01  2.00814E+01  1.80058E-02 -4.19883E-01 -3.27304E-02 -2.81904E-01  5.18618E-05 -1.09884E-04 -9.90416E-06 -1.36371E-04 -1.20722E+00 -7.47387E-04  1.70232E-05  4.19303E-06  6.64259E-06  1.50000E+01
  2.05390E+01  1.97257E+01  2.00562E+01  1.97384E-02 -4.23131E-01 -2.29891E-02 -3.51089E-01  5.15461E-05 -1.10482E-04 -7.14610E-06  2.02044E-04 -1.24183E+00 -2.18763E-04  1.64344E-05  4.50894E-06  4.44386E-06  1.50000E+01
  2.05576E+01  1.97339E+01  2.00171E+01  3.49079E-02 -4.51685E-01 -7.70778E-03 -1.84513E-01  4.42321E-05 -8.75915E-05 -1.15242E-06  9.66206E-04 -1.36022E+00 -2.50067E-04  1.56093E-05  4.76543E-06  1.56072E-06  1.50000E+01
  2.05382E+01  1.97282E+01  2.00047E+01  2.16193E-02 -4.25148E-01 -2.77815E-03 -2.92361E-01  5.33008E-05 -1.18037E-04 -5.82360E-07  1.02886E-03 -1.28972E+00 -4.29073E-04  1.63454E-05  4.89671E-06  3.19765E-07  1.50000E+01
  2.08659E+01  1.97625E+01  1.97051E+01  1.82031E-01 -8.36363E-01  1.22467E-01  1.27520E-01  2.22448E-06  8.38628E-05 -5.49115E-05  3.30926E-03 -2.63628E+00  1.46817E-03  2.41297E-05  1.58251E-07 -1.16893E-05  1.50000E+01
  2.08673E+01  1.97489E+01  1.96791E+01  1.66520E-01 -8.26301E-01  1.29304E-01  1.45277E-01 -4.56882E-07  1.00893E-04 -6.96293E-05  3.55716E-03 -2.60681E+00  1.79615E-03  2.53590E-05 -8.30630E-07 -1.23867E-05  1.50000E+01
  2.07900E+01  1.97428E+01  1.97104E+01  1.34208E-01 -7.10324E-01  1.05972E-01  3.72663E-02  5.41716E-07  6.41803E-05 -4.58355E-05  2.46867E-03 -2.23385E+00  8.87666E-04  2.19211E-05  2.10267E-07 -1.44182E-05  1.50000E+01
  2.04012E+01  1.96758E+01  2.01311E+01 -7.57245E-02 -2.19230E-01 -4.21068E-02 -1.56522E-01  4.51113E-05 -6.85294E-05 -7.20529E-06 -1.37609E-03 -7.31375E-01 -1.12459E-03  2.80788E-05  4.25558E-06  9.90729E-06  1.50000E+01
  2.03809E+01  1.96683E+01  2.01429E+01 -8.79126E-02 -1.90015E-01 -4.28842E-02 -1.65117E-01  4.40735E-05 -6.32860E-05 -8.30724E-06 -1.96965E-03 -6.22090E-01 -5.26115E-04  2.90217E-05  4.30982E-06  8.70772E-06  1.50000E+01
  2.04018E+01  1.96693E+01  2.01570E+01 -7.64576E-02 -2.09407E-01 -5.00940E-02 -1.77767E-01  4.49093E-05 -6.76216E-05 -9.87380E-06 -9.73898E-04 -6.86175E-01 -1.40073E-03  2.81819E-05  3.91017E-06  9.79272E-06  1.50000E+01
  2.08843E+01  1.97732E+01  1.97172E+01  2.00500E-01 -8.72213E-01  1.23339E-01  1.08948E-01  8.35930E-06  7.01750E-05 -4.53640E-05  3.26701E-03 -2.75086E+00  1.50636E-03  2.52926E-05  8.10185E-07 -1.06878E-05  1.50000E+01
  2.08108E+01  1.97284E+01  1.96701E+01  1.24571E-01 -7.23563E-01  1.17970E-01  1.47349E-01 -4.57180E-06  9.08414E-05 -6.75635E-05  3.06115E-03 -2.27930E+00  1.26069E-03  2.36422E-05 -1.60704E-06 -1.56506E-05  1.50000E+01
  2.07912E+01  1.97300E+01  1.96844E+01  1.20258E-01 -6.98052E-01  1.11616E-01  1.38235E-01 -1.67564E-06  7.45014E-05 -5.58499E-05  2.64821E-03 -2.19690E+00  1.05090E-03  2.29737E-05 -9.91938E-07 -1.59066E-05  1.50000E+01
  2.04831E+01  1.96806E+01  2.01887E+01 -3.07018E-02 -3.02325E-01 -6.73900E-02 -1.71629E-01  4.47601E-05 -7.32094E-05 -1.12383E-05  9.45959E-04 -9.43877E-01 -2.23620E-03  2.37537E-05  2.20369E-06  1.35003E-05  1.50000E+01
  2.05026E+01  1.96896E+01  2.01779E+01 -1.70114E-02 -3.35249E-01 -6.50103E-02 -2.10396E-01  4.96018E-05 -9.24117E-05 -1.74260E-05  9.87276E-04 -1.02613E+00 -1.60980E-03  2.20022E-05  2.59389E-06  1.22102E-05  1.50000E+01
  2.04634E+01  1.96716E+01  2.01996E+01 -4.39798E-02 -2.68621E-01 -6.91153E-02 -1.82874E-01  4.18874E-05 -6.08698E-05 -7.77116E-06  9.23298E-04 -8.51807E-01 -2.73482E-03  2.50009E-05  2.17858E-06  1.31880E-05  1.50000E+01
  2.04792E+01  1.97104E+01  1.99677E+01 -1.96108E-02 -3.43899E-01  1.21975E-02 -2.95985E-01  6.89483E-05 -1.79326E-04  7.57614E-06  4.14904E-04 -1.08748E+00  3.25044E-04  1.88245E-05  4.93623E-06 -2.59327E-06  1.50000E+01
  2.08490E+01  1.97376E+01  1.96674E+01  1.47367E-01 -7.88492E-01  1.27159E-01  2.08574E-01 -3.26482E-06  1.03737E-04 -7.39025E-05  3.57070E-03 -2.48690E+00  1.71948E-03  2.42855E-05 -1.46512E-06 -1.33942E-05  1.50000E+01
  2.08505E+01  1.97228E+01  1.96421E+01  1.29716E-01 -7.76243E-01  1.31619E-01  2.17177E-01 -5.94538E-06  1.23860E-04 -9.36524E-05  3.83977E-03 -2.44960E+00  2.06323E-03  2.50238E-05 -2.79017E-06 -1.42194E-05  1.50000E+01
  2.08306E+01  1.97260E+01  1.96559E+01  1.27813E-01 -7.49714E-01  1.24695E-01  2.02950E-01 -6.10425E-06  1.06830E-04 -7.96296E-05  3.49517E-03 -2.36410E+00  1.61536E-03  2.42792E-05 -2.14155E-06 -1.49243E-05  1.50000E+01
  2.07717E+01  1.97310E+01  1.96990E+01  1.15118E-01 -6.73313E-01  1.05714E-01  6.78624E-02  1.88637E-06  5.90330E-05 -4.54608E-05  2.29639E-03 -2.11782E+00  9.52987E-04  2.21451E-05 -3.28255E-07 -1.56628E-05  1.50000E+01
  2.05593E+01  1.97221E+01  2.01195E+01  2.78428E-02 -4.37832E-01 -4.73621E-02 -2.36977E-01  4.86842E-05 -9.38645E-05 -1.12905E-05  5.17804E-04 -1.29152E+00 -1.17719E-03  1.80716E-05  3.69540E-06  9.30950E-06  1.50000E+01
  2.05404E+01  1.97137E+01  2.01311E+01  1.37905E-02 -4.07827E-01 -5.10661E-02 -1.71110E-01  4.50908E-05 -8.34706E-05 -1.06487E-05  4.39825E-04 -1.19147E+00 -1.47378E-03  1.83879E-05  3.41704E-06  9.58537E-06  1.50000E+01
  2.04007E+01  1.96813E+01  2.01046E+01 -7.48866E-02 -2.27160E-01 -3.37337E-02 -1.47763E-01  4.57965E-05 -7.14162E-05 -5.65557E-06 -1.37807E-03 -7.72409E-01 -1.00552E-03  2.80412E-05  4.84451E-06  8.88508E-06  1.50000E+01
  2.03796E+01  1.96790E+01  2.00906E+01 -8.69104E-02 -2.04619E-01 -2.71616E-02 -1.27803E-01  4.23856E-05 -5.91062E-05 -2.96613E-06 -1.96238E-03 -6.83082E-01 -5.03959E-04  2.82025E-05  4.99053E-06  7.67219E-06  1.50000E+01
  2.01194E+01  1.96454E+01  2.02248E+01 -4.12538E-02  5.79887E-01  0.00000E+00 -5.49619E-02  2.67296E-05 -2.41131E-05  2.48929E-06 -3.41619E+00 -2.64547E+00 -3.80585E+00  3.18179E-05 -1.47179E-05 -1.48070E-06  1.50000E+01
  2.09258E+01  1.97519E+01  1.96636E+01  1.87549E-01 -9.15065E-01  1.48352E-01 -4.24764E-02  9.65322E-06  2.43011E-05 -2.09165E-05  2.12556E-02 -1.50704E+00  1.33606E-02  1.41167E-05 -6.96418E-07 -5.26789E-06  1.50000E+01
  2.09074E+01  1.97411E+01  1.96518E+01  1.68613E-01 -8.78946E-01  1.45413E-01  5.82495E-02  1.23781E-05  8.57252E-05 -6.77151E-05  3.73153E-03 -2.77703E+00  2.52143E-03  2.84092E-05 -1.89034E-06 -1.12180E-05  1.50000E+01
  2.07926E+01  1.97163E+01  1.96588E+01  1.04705E-01 -6.84533E-01  1.15987E-01  1.90227E-01 -7.48021E-06  9.66617E-05 -7.39720E-05  2.84801E-03 -2.15637E+00  1.23684E-03  2.42806E-05 -2.07302E-06 -1.70578E-05  1.50000E+01
  2.07729E+01  1.97179E+01  1.96732E+01  1.00644E-01 -6.59780E-01  1.10427E-01  1.27451E-01 -1.36659E-06  7.07337E-05 -5.61094E-05  2.44601E-03 -2.07675E+00  1.10594E-03  2.32520E-05 -1.31637E-06 -1.67448E-05  1.50000E+01
  2.04189E+01  1.96956E+01  1.99832E+01 -5.95050E-02 -2.65362E-01  6.21471E-03 -1.58642E-01  5.23164E-05 -1.17604E-04  2.00017E-06  1.67686E-05 -8.65198E-01  4.69075E-04  2.23255E-05  5.35658E-06 -1.58118E-06  1.50000E+01
  2.05409E+01  1.97075E+01  2.01560E+01  1.08886E-02 -3.99082E-01 -5.94339E-02 -1.74808E-01  4.40978E-05 -7.63530E-05 -1.10744E-05  1.30511E-03 -1.18899E+00 -1.11312E-03  1.95954E-05  3.05346E-06  1.08795E-05  1.50000E+01
  2.04226E+01  1.96702E+01  2.01712E+01 -6.50519E-02 -2.29308E-01 -5.70729E-02 -1.81687E-01  4.41175E-05 -6.49950E-05 -8.46877E-06 -4.48839E-05 -7.45710E-01 -2.14376E-03  2.74134E-05  3.22457E-06  1.17364E-05  1.50000E+01
  2.04431E+01  1.96710E+01  2.01854E+01 -5.41440E-02 -2.49110E-01 -6.34758E-02 -1.65407E-01  4.23272E-05 -6.11995E-05 -7.72150E-06  5.90555E-04 -7.99653E-01 -2.61841E-03  2.59522E-05  2.63455E-06  1.25620E-05  1.50000E+01
  2.01552E+01  1.96245E+01  2.01756E+01 -1.73633E-01  1.95006E-01  4.19713E-02  3.58030E-02  4.32143E-05  1.58340E-05 -3.73261E-06 -4.45266E-02  5.76113E-01  2.98717E-02  4.07838E-05 -3.93606E-06 -2.73646E-06  1.50000E+01
  2.01340E+01  1.96264E+01  2.01635E+01 -1.72409E-01  2.57551E-01  4.46616E-02  3.10394E-02  4.20933E-05 -4.89425E-06 -3.22989E-06 -4.39701E-02  7.86842E-01  2.94569E-02  4.21992E-05 -6.18818E-06 -3.16012E-06  1.50000E+01
  2.08522E+01  1.97071E+01  1.96173E+01  1.10217E-01 -7.62793E-01  1.34497E-01  2.64611E-01 -8.88152E-06  1.49353E-04 -1.18326E-04  4.11774E-03 -2.40878E+00  2.44554E-03  2.60879E-05 -4.05531E-06 -1.48251E-05  1.50000E+01
  2.03577E+01  1.96814E+01  2.00242E+01 -9.71823E-02 -1.88959E-01 -6.34856E-03 -1.30788E-01  4.03155E-05 -5.58804E-05 -6.47576E-07 -2.00606E-03 -6.14637E-01 -3.81077E-05  2.74834E-05  5.69584E-06  2.16843E-06  1.50000E+01
  2.03581E+01  1.96796E+01  2.00505E+01 -9.76659E-02 -1.87036E-01 -1.36893E-02 -1.34955E-01  3.89619E-05 -4.65679E-05 -3.41300E-07 -2.25129E-03 -6.11922E-01 -3.86696E-05  2.80695E-05  5.48876E-06  4.56163E-06  1.50000E+01
  2.05588E+01  1.97267E+01  2.00942E+01  3.02468E-02 -4.43767E-01 -3.79346E-02 -2.63428E-01  5.16212E-05 -1.06586E-04 -1.13649E-05  3.30141E-04 -1.30360E+00 -8.57476E-04  1.71117E-05  4.10989E-06  7.29039E-06  1.50000E+01
  2.05583E+01  1.97302E+01  2.00688E+01  3.22763E-02 -4.47993E-01 -2.80889E-02 -3.22085E-01  5.04389E-05 -1.05343E-04 -8.09377E-06  4.18621E-04 -1.32186E+00 -4.88374E-04  1.62192E-05  4.36602E-06  5.39657E-06  1.50000E+01
  2.03817E+01  1.96614E+01  2.01685E+01 -8.81495E-02 -1.80053E-01 -5.04163E-02 -1.35119E-01  3.98770E-05 -4.03665E-05 -2.33410E-06 -1.79490E-03 -5.83793E-01 -7.68141E-04  3.00840E-05  3.70378E-06  1.03791E-05  1.50000E+01
  2.03616E+01  1.96535E+01  2.01800E+01 -9.84191E-02 -1.54548E-01 -5.05199E-02 -1.61909E-01  3.80283E-05 -2.67637E-05  9.25498E-07 -2.44078E-03 -4.95785E-01 -3.50206E-04  3.15402E-05  3.70975E-06  1.01193E-05  1.50000E+01
  2.03824E+01  1.96537E+01  2.01938E+01 -8.82884E-02 -1.67910E-01 -5.74861E-02 -1.56631E-01  3.79060E-05 -3.26226E-05 -2.93671E-08 -1.47565E-03 -5.40945E-01 -1.35659E-03  3.03607E-05  3.04804E-06  1.14290E-05  1.50000E+01
  2.07534E+01  1.97189E+01  1.96877E+01  9.58793E-02 -6.35872E-01  1.05312E-01  8.82402E-02  2.42806E-06  5.63409E-05 -4.63701E-05  2.13901E-03 -2.00063E+00  1.08480E-03  2.25900E-05 -6.25250E-07 -1.63963E-05  1.50000E+01
  2.03989E+01  1.96905E+01  2.00237E+01 -7.27736E-02 -2.38988E-01 -7.35290E-03 -2.25893E-01  5.33477E-05 -1.22015E-04 -3.48875E-06 -7.83502E-04 -7.96193E-01 -3.64766E-05  2.37834E-05  5.42701E-06  1.96296E-06  1.50000E+01
  2.03986E+01  1.96910E+01  1.99970E+01 -7.25449E-02 -2.39252E-01  1.38072E-03 -2.40963E-01  5.65735E-05 -1.37844E-04  2.09911E-07 -5.55222E-04 -7.84917E-01  2.30343E-04  2.32978E-05  5.40030E-06 -2.79667E-07  1.50000E+01
  2.05579E+01  1.97326E+01  2.00431E+01  3.38883E-02 -4.50594E-01 -1.79868E-02 -2.88434E-01  4.52460E-05 -9.04219E-05 -3.43742E-06  6.72761E-04 -1.34316E+00 -2.19513E-04  1.56293E-05  4.55499E-06  3.57547E-06  1.50000E+01
  2.08322E+01  1.97110E+01  1.96308E+01  1.09771E-01 -7.36265E-01  1.28198E-01  2.25509E-01 -1.23771E-05  1.38830E-04 -1.06626E-04  3.77202E-03 -2.32297E+00  1.93306E-03  2.52459E-05 -3.46557E-06 -1.58620E-05  1.50000E+01
  2.08123E+01  1.97141E+01  1.96447E+01  1.07840E-01 -7.10088E-01  1.21955E-01  2.34999E-01 -1.06098E-05  1.16422E-04 -8.87644E-05  3.32405E-03 -2.23885E+00  1.51833E-03  2.50534E-05 -2.82409E-06 -1.68155E-05  1.50000E+01
  2.03803E+01  1.96742E+01  2.01169E+01 -8.74947E-02 -1.98179E-01 -3.51140E-02 -1.52912E-01  4.41510E-05 -6.55385E-05 -5.97971E-06 -2.01266E-03 -6.56319E-01 -5.44503E-04  2.85112E-05  4.50498E-06  8.86246E-06  1.50000E+01
  2.03592E+01  1.96723E+01  2.01031E+01 -9.86813E-02 -1.78550E-01 -2.84272E-02 -1.51234E-01  4.13984E-05 -5.57823E-05 -4.25475E-06 -2.68749E-03 -5.83674E-01  1.55033E-04  2.85543E-05  4.75535E-06  7.16115E-06  1.50000E+01
  2.05956E+01  1.97461E+01  1.99899E+01  6.22964E-02 -5.04279E-01  3.35997E-03 -2.54933E-01  4.86188E-05 -9.80369E-05  1.14431E-06  1.16664E-03 -1.53415E+00  3.65467E-05  1.53119E-05  4.90979E-06 -8.08819E-07  1.50000E+01
  2.05765E+01  1.97396E+01  1.99772E+01  4.85990E-02 -4.77271E-01  8.42599E-03 -2.12530E-01  4.66635E-05 -9.25025E-05  1.90302E-06  1.17817E-03 -1.45562E+00  1.61577E-06  1.57152E-05  4.87295E-06 -2.13949E-06  1.50000E+01
  2.05766E+01  1.97401E+01  2.00036E+01  4.86783E-02 -4.78193E-01 -2.21677E-03 -2.06433E-01  4.59111E-05 -9.07304E-05 -1.65897E-07  1.05993E-03 -1.44776E+00 -9.05504E-05  1.55190E-05  4.89330E-06  3.68755E-07  1.50000E+01
  2.08339E+01  1.96951E+01  1.96061E+01  8.98949E-02 -7.21554E-01  1.30127E-01  3.33074E-01 -1.50483E-05  1.62070E-04 -1.29583E-04  4.05547E-03 -2.27813E+00  2.27850E-03  2.68215E-05 -4.34326E-06 -1.60794E-05  1.50000E+01
  2.05603E+01  1.97096E+01  2.01699E+01  2.11786E-02 -4.20675E-01 -6.44823E-02 -1.85194E-01  4.19548E-05 -6.73162E-05 -8.84381E-06  1.39524E-03 -1.26526E+00 -1.36054E-03  1.96854E-05  2.69204E-06  1.19527E-05  1.50000E+01
  2.05598E+01  1.97164E+01  2.01447E+01  2.49101E-02 -4.30137E-01 -5.62348E-02 -1.85152E-01  4.17376E-05 -6.92536E-05 -7.57099E-06  9.11735E-04 -1.28071E+00 -1.38570E-03  1.88359E-05  3.16647E-06  1.08975E-05  1.50000E+01
  2.03586E+01  1.96765E+01  2.00769E+01 -9.82217E-02 -1.83540E-01 -2.10523E-02 -1.23964E-01  3.94231E-05 -4.66635E-05 -7.76283E-07 -2.52113E-03 -6.01645E-01  3.48622E-05  2.85101E-05  5.13344E-06  6.55421E-06  1.50000E+01
  2.04031E+01  1.96538E+01  2.02076E+01 -7.82360E-02 -1.83237E-01 -6.41125E-02 -1.89484E-01  3.71934E-05 -3.26830E-05  7.58291E-07 -4.74099E-04 -5.90882E-01 -2.38878E-03  2.91631E-05  2.24610E-06  1.30615E-05  1.50000E+01
  2.04237E+01  1.96537E+01  2.02215E+01 -6.87088E-02 -1.99622E-01 -7.00660E-02 -1.49553E-01  3.84007E-05 -4.11031E-05 -1.75489E-06  3.38322E-04 -6.42163E-01 -3.16030E-03  2.81386E-05  1.70861E-06  1.38762E-05  1.50000E+01
  2.04231E+01  1.96624E+01  2.01965E+01 -6.66548E-02 -2.15827E-01 -6.41398E-02 -1.50698E-01  3.97172E-05 -4.60440E-05 -2.30508E-06  1.23381E-04 -6.96219E-01 -2.58101E-03  2.79931E-05  2.26009E-06  1.36890E-05  1.50000E+01
  2.01129E+01  1.96288E+01  2.01514E+01 -1.66863E-01  3.25032E-01  4.30806E-02  2.97601E-02  4.05339E-05 -1.69662E-05 -1.91023E-06 -3.99614E-02  1.00479E+00  2.56182E-02  4.31516E-05 -8.67471E-06 -3.27043E-06  1.50000E+01
  2.00935E+01  1.96361E+01  2.01639E+01 -1.23555E-01  4.65911E-01  3.34239E-02  1.85791E-02  5.00069E-05 -1.91843E-05 -3.63686E-06 -2.10607E-02  1.46230E+00  1.71515E-02  4.99202E-05 -1.78617E-05 -2.92944E-06  1.50000E+01