 TITLE="3D TRIANGULAR SURFACE DATA"
VARIABLES="X","Y","Z","U","V","W","P", "Fex", "Fey", "Fez","Finx","Finy","Finz","WSSx","WSSy","WSSz","AMForce"
 ZONE T="unstruc"N=        1757 E=        3355 F=FEPOINT  ET=TRIANGLE
  2.03968E+01  1.99103E+01  2.00980E+01  3.47197E-01 -1.05922E+00 -7.38031E-04  9.19980E-01 -3.85019E-04  4.97528E-04  1.21834E-04  3.81674E-03 -4.38143E+00 -2.70582E-04  1.89991E-05  1.56759E-05  7.85632E-07  1.50000E+01
  2.04143E+01  1.99249E+01  2.00983E+01  3.61706E-01 -1.08292E+00 -2.75429E-04  9.36539E-01 -1.89829E-04  2.40893E-04  5.83440E-05  3.60540E-03 -2.09943E+00  2.85685E-05  9.10917E-06  7.68670E-06  2.15005E-07  1.50000E+01
  2.04092E+01  1.99253E+01  2.00769E+01  3.61868E-01 -1.07721E+00  1.07597E-04  9.04233E-01 -2.79368E-04  3.55385E-04  6.67632E-05  1.29160E-03 -3.08897E+00  1.85355E-03  1.26883E-05  1.06160E-05  4.72995E-07  1.50000E+01
  2.03967E+01  1.99011E+01  2.01292E+01  3.37620E-01 -1.05764E+00 -9.90069E-04  9.12895E-01 -3.24500E-04  4.19340E-04  1.34080E-04  1.72591E-03 -3.69022E+00  5.00839E-04  1.69602E-05  1.40223E-05  6.78640E-07  1.50000E+01
  2.04126E+01  1.99176E+01  2.01194E+01  3.53996E-01 -1.08023E+00 -8.67315E-04  9.32203E-01 -2.79353E-04  3.53815E-04  1.05243E-04  9.09862E-04 -3.07660E+00 -2.11071E-03  1.37397E-05  1.15910E-05  4.36437E-07  1.50000E+01
  2.04271E+01  1.99327E+01  2.01105E+01  3.68851E-01 -1.10023E+00  5.27331E-06  9.68056E-01 -2.50160E-04  3.13203E-04  8.49936E-05  1.65630E-03 -2.69608E+00  5.69938E-04  1.17437E-05  1.00343E-05  2.83122E-07  1.50000E+01
  2.04253E+01  1.99370E+01  2.00865E+01  3.73208E-01 -1.09836E+00  2.80595E-05  9.44738E-01 -2.49735E-04  3.13469E-04  6.55477E-05  2.33947E-03 -2.70750E+00 -7.97503E-04  1.12691E-05  9.59952E-06  2.04579E-07  1.50000E+01
  2.04060E+01  1.99270E+01  2.00499E+01  3.63437E-01 -1.07343E+00  2.56797E-05  9.20468E-01 -3.11375E-04  3.97854E-04  4.89772E-05  1.75285E-03 -3.35235E+00  3.31563E-04  1.31886E-05  1.09730E-05  3.88162E-07  1.50000E+01
  2.03915E+01  1.99125E+01  2.00664E+01  3.49458E-01 -1.05305E+00 -5.99610E-04  9.06176E-01 -3.32124E-04  4.30951E-04  7.25707E-05  2.12632E-03 -3.70813E+00 -8.13172E-04  1.49885E-05  1.22595E-05  6.85157E-07  1.50000E+01
  2.03889E+01  1.99142E+01  2.00375E+01  3.51248E-01 -1.05008E+00 -3.72332E-04  9.06109E-01 -3.21107E-04  4.16368E-04  3.94937E-05  2.12263E-03 -3.47575E+00 -2.92296E-04  1.32533E-05  1.08556E-05  3.46975E-07  1.50000E+01
  2.04138E+01  1.99098E+01  2.01457E+01  3.45904E-01 -1.08072E+00 -8.66774E-04  9.23693E-01 -2.95754E-04  3.75190E-04  1.34968E-04  1.13875E-03 -3.31366E+00 -6.20561E-04  1.56783E-05  1.32713E-05  4.56301E-07  1.50000E+01
  2.04285E+01  1.99262E+01  2.01350E+01  3.62080E-01 -1.10147E+00 -3.34143E-04  9.25094E-01 -2.85520E-04  3.56855E-04  1.18151E-04  6.50081E-04 -3.11331E+00 -6.53661E-04  1.42433E-05  1.22594E-05  2.87027E-07  1.50000E+01
  2.03599E+01  1.98802E+01  2.00972E+01  3.17504E-01 -1.00697E+00 -1.60581E-03  8.54547E-01 -3.01394E-04  4.04318E-04  1.00518E-04  2.48737E-03 -3.57126E+00 -1.47463E-04  1.58369E-05  1.25204E-05  1.04217E-06  1.50000E+01
  2.03576E+01  1.98846E+01  2.00682E+01  3.22285E-01 -1.00511E+00 -1.25545E-03  8.49725E-01 -3.02363E-04  4.06132E-04  7.11810E-05  2.69328E-03 -3.51226E+00 -1.37802E-04  1.49391E-05  1.18448E-05  6.99253E-07  1.50000E+01
  2.03417E+01  1.98691E+01  2.00824E+01  3.06710E-01 -9.81403E-01 -1.78425E-03  8.15247E-01 -2.78695E-04  3.81044E-04  8.14576E-05  2.75765E-03 -3.35429E+00 -1.58002E-04  1.49653E-05  1.16510E-05  8.94936E-07  1.50000E+01
  2.03787E+01  1.98913E+01  2.01125E+01  3.28281E-01 -1.03290E+00 -1.33145E-03  8.92355E-01 -3.31743E-04  4.36733E-04  1.23687E-04  2.87089E-03 -3.88777E+00 -2.28269E-04  1.76698E-05  1.43087E-05  8.72786E-07  1.50000E+01
  2.03625E+01  1.98739E+01  2.01258E+01  3.10714E-01 -1.00878E+00 -1.93965E-03  8.48415E-01 -2.91350E-04  3.89577E-04  1.25165E-04  2.31678E-03 -3.48488E+00 -2.67180E-04  1.66712E-05  1.32762E-05  9.56728E-07  1.50000E+01
  2.03809E+01  1.98836E+01  2.01412E+01  3.20091E-01 -1.03420E+00 -1.54962E-03  8.66945E-01 -3.02970E-04  3.97290E-04  1.41437E-04  1.93459E-03 -3.52260E+00  3.40245E-05  1.70496E-05  1.38453E-05  9.25135E-07  1.50000E+01
  2.03761E+01  1.98967E+01  2.00827E+01  3.34035E-01 -1.03084E+00 -1.06200E-03  8.84040E-01 -3.37270E-04  4.44611E-04  9.34111E-05  2.65475E-03 -3.89615E+00 -1.17391E-04  1.65058E-05  1.32961E-05  9.03385E-07  1.50000E+01
  2.03734E+01  1.98998E+01  2.00531E+01  3.37181E-01 -1.02811E+00 -8.18170E-04  8.88212E-01 -3.18201E-04  4.19355E-04  5.69315E-05  2.32611E-03 -3.56255E+00 -2.94256E-04  1.41945E-05  1.14478E-05  4.97990E-07  1.50000E+01
  2.04406E+01  1.99474E+01  2.00986E+01  3.82985E-01 -1.11877E+00  4.15862E-04  9.79912E-01 -2.86059E-04  3.55236E-04  8.44041E-05  1.61084E-03 -3.02430E+00  4.84221E-06  1.28996E-05  1.11372E-05  1.15587E-07  1.50000E+01
  2.04386E+01  1.99512E+01  2.00730E+01  3.86556E-01 -1.11667E+00  3.62418E-04  9.77913E-01 -2.93618E-04  3.65636E-04  6.38308E-05  1.96987E-03 -3.12908E+00 -4.14554E-04  1.28069E-05  1.09990E-05  1.29885E-07  1.50000E+01
  2.04426E+01  1.99422E+01  2.01239E+01  3.77738E-01 -1.12096E+00  4.09103E-04  9.77711E-01 -2.90882E-04  3.59914E-04  1.07994E-04  1.51822E-03 -3.11447E+00  2.30759E-04  1.37007E-05  1.18903E-05  2.20496E-07  1.50000E+01
  2.04225E+01  1.99393E+01  2.00613E+01  3.75206E-01 -1.09559E+00  2.84300E-04  9.13913E-01 -2.93005E-04  3.68241E-04  5.45057E-05  9.84556E-04 -3.14393E+00  3.72880E-04  1.25800E-05  1.06559E-05  2.94937E-07  1.50000E+01
  2.04368E+01  1.99535E+01  2.00466E+01  3.88690E-01 -1.11487E+00  4.51664E-04  9.36610E-01 -3.09273E-04  3.85612E-04  4.28768E-05  1.65375E-03 -3.29465E+00  1.18206E-04  1.29732E-05  1.11019E-05  1.50091E-07  1.50000E+01
  2.03718E+01  1.99014E+01  2.00241E+01  3.38917E-01 -1.02640E+00 -4.99836E-04  8.80511E-01 -3.08239E-04  4.06252E-04  2.54003E-05  2.59205E-03 -3.42083E+00 -2.49383E-04  1.30578E-05  1.05391E-05  2.43922E-07  1.50000E+01
  2.04043E+01  1.99281E+01  2.00219E+01  3.64617E-01 -1.07141E+00  5.07088E-05  9.15565E-01 -3.21532E-04  4.11060E-04  2.25282E-05  2.19640E-03 -3.40044E+00  3.32983E-05  1.28574E-05  1.06879E-05  2.14468E-07  1.50000E+01
  2.03877E+01  1.99150E+01  2.00089E+01  3.52089E-01 -1.04869E+00 -1.39675E-04  9.01800E-01 -3.17181E-04  4.11416E-04  9.64085E-06  2.52793E-03 -3.40486E+00 -1.68513E-04  1.26943E-05  1.03976E-05  9.67983E-08  1.50000E+01
  2.03655E+01  1.98662E+01  2.01534E+01  3.02329E-01 -1.01078E+00 -2.20209E-03  8.66530E-01 -2.81343E-04  3.74407E-04  1.46758E-04  2.06031E-03 -3.35408E+00 -1.83489E-04  1.71539E-05  1.37118E-05  1.05327E-06  1.50000E+01
  2.03839E+01  1.98752E+01  2.01684E+01  3.11118E-01 -1.03624E+00 -1.78792E-03  8.69789E-01 -2.88582E-04  3.76274E-04  1.60483E-04  1.84950E-03 -3.36699E+00 -9.73773E-05  1.76272E-05  1.43758E-05  1.03290E-06  1.50000E+01
  2.07117E+01  2.00914E+01  1.96684E+01  5.29245E-01 -1.47802E+00 -8.15153E-03  9.21497E-01 -3.08216E-04  3.65247E-04 -2.43528E-04  1.46007E-03 -4.65153E+00 -5.17272E-04  2.40994E-05  2.82448E-05  6.14638E-06  1.50000E+01
  2.06938E+01  2.00848E+01  1.96838E+01  5.20744E-01 -1.45341E+00 -8.64423E-03  9.78529E-01 -3.38156E-04  3.88924E-04 -2.50205E-04  1.42084E-03 -4.57015E+00 -4.20052E-04  2.39775E-05  2.76007E-05  5.12807E-06  1.50000E+01
  2.07053E+01  2.01041E+01  1.96952E+01  5.39147E-01 -1.46607E+00 -8.55793E-03  9.57787E-01 -3.16533E-04  3.77302E-04 -2.27635E-04  1.47988E-03 -4.60961E+00 -4.81785E-04  2.56316E-05  2.88933E-05  5.64447E-06  1.50000E+01
  2.06878E+01  2.00969E+01  1.97108E+01  5.30344E-01 -1.44225E+00 -8.77496E-03  1.02950E+00 -3.54065E-04  4.07663E-04 -2.37083E-04  1.46152E-03 -4.53172E+00 -3.81391E-04  2.44803E-05  2.74239E-05  4.91797E-06  1.50000E+01
  2.06996E+01  2.01158E+01  1.97226E+01  5.48264E-01 -1.45498E+00 -8.72202E-03  9.60823E-01 -3.35964E-04  3.99549E-04 -2.16710E-04  1.50334E-03 -4.57103E+00 -4.37685E-04  2.63627E-05  2.92262E-05  5.86743E-06  1.50000E+01
  2.07672E+01  2.01073E+01  1.96229E+01  5.53378E-01 -1.55592E+00 -3.64285E-03  5.65955E-01 -1.42512E-04  2.25104E-04 -1.54913E-04  1.94774E-03 -4.90750E+00 -5.46528E-04  2.83386E-05  3.29789E-05  9.41543E-06  1.50000E+01
  2.07483E+01  2.01027E+01  1.96379E+01  5.45708E-01 -1.52927E+00 -5.69297E-03  7.44120E-01 -2.16474E-04  2.92229E-04 -2.04761E-04  1.76647E-03 -4.82030E+00 -5.81762E-04  2.54504E-05  2.99850E-05  8.01337E-06  1.50000E+01
  2.07597E+01  2.01218E+01  1.96489E+01  5.64514E-01 -1.54148E+00 -5.22493E-03  5.14455E-01 -1.61454E-04  2.47258E-04 -1.56922E-04  1.89027E-03 -4.85996E+00 -5.81514E-04  3.02948E-05  3.39059E-05  8.78023E-06  1.50000E+01
  2.04451E+01  1.99356E+01  2.01494E+01  3.71087E-01 -1.12361E+00  2.47339E-04  9.70173E-01 -3.03414E-04  3.74045E-04  1.35357E-04  1.37544E-03 -3.27473E+00 -3.46146E-04  1.53115E-05  1.34796E-05  2.43346E-08  1.50000E+01
  2.07527E+01  2.01353E+01  1.96756E+01  5.74788E-01 -1.52785E+00 -6.50014E-03  6.01281E-01 -1.86396E-04  2.72724E-04 -1.59782E-04  1.85261E-03 -4.81512E+00 -5.92663E-04  3.40958E-05  3.68757E-05  8.77432E-06  1.50000E+01
  2.07711E+01  2.01404E+01  1.96601E+01  5.82975E-01 -1.55349E+00 -4.83782E-03  3.94313E-01 -1.14117E-04  2.04493E-04 -1.13416E-04  1.96498E-03 -4.89943E+00 -6.20194E-04  3.51469E-05  3.82253E-05  1.05454E-05  1.50000E+01
  2.04516E+01  1.99676E+01  2.00322E+01  4.02043E-01 -1.13446E+00  5.52871E-04  9.54284E-01 -3.19484E-04  3.94614E-04  2.98621E-05  2.09424E-03 -3.39197E+00  7.48521E-05  1.31249E-05  1.13409E-05  6.08863E-08  1.50000E+01
  2.04357E+01  1.99548E+01  2.00194E+01  3.89915E-01 -1.11368E+00  4.35345E-04  9.17081E-01 -3.21047E-04  4.00444E-04  1.84877E-05  2.09906E-03 -3.38012E+00  2.03891E-04  1.29185E-05  1.10310E-05  1.02372E-07  1.50000E+01
  2.03988E+01  1.98927E+01  2.01569E+01  3.28863E-01 -1.05881E+00 -1.22330E-03  9.09243E-01 -2.97604E-04  3.83141E-04  1.50102E-04  1.54062E-03 -3.42100E+00  8.98939E-06  1.68498E-05  1.39989E-05  7.46833E-07  1.50000E+01
  2.04021E+01  1.98838E+01  2.01833E+01  3.19730E-01 -1.06133E+00 -1.40241E-03  8.99717E-01 -2.93422E-04  3.75419E-04  1.72846E-04  1.96896E-03 -3.35773E+00 -2.14188E-04  1.74731E-05  1.45496E-05  9.36729E-07  1.50000E+01
  2.04166E+01  1.99015E+01  2.01720E+01  3.37485E-01 -1.08294E+00 -9.03495E-04  9.45489E-01 -2.96452E-04  3.74480E-04  1.59634E-04  1.73770E-03 -3.34960E+00 -3.39210E-04  1.65039E-05  1.40376E-05  5.65410E-07  1.50000E+01
  2.03712E+01  1.99016E+01  1.99956E+01  3.39212E-01 -1.02561E+00 -1.27430E-04  8.77272E-01 -3.02164E-04  3.98227E-04 -3.99223E-06  2.74098E-03 -3.34458E+00 -1.72478E-04  1.25655E-05  1.01423E-05 -3.65197E-08  1.50000E+01
  2.04037E+01  1.99282E+01  1.99938E+01  3.64759E-01 -1.07056E+00  1.45326E-04  9.17031E-01 -3.21394E-04  4.11327E-04 -6.03546E-06  2.57017E-03 -3.39258E+00 -1.06239E-05  1.27434E-05  1.05840E-05 -6.10579E-08  1.50000E+01
  2.03875E+01  1.99145E+01  1.99807E+01  3.51588E-01 -1.04824E+00  1.25141E-04  9.02508E-01 -3.13157E-04  4.06183E-04 -1.93218E-05  2.68883E-03 -3.35886E+00 -9.04953E-05  1.24962E-05  1.02310E-05 -1.63354E-07  1.50000E+01
  2.07063E+01  2.01444E+01  1.97628E+01  5.73725E-01 -1.45757E+00 -8.51711E-03  9.06102E-01 -3.23827E-04  4.00841E-04 -1.77506E-04  1.55473E-03 -4.57559E+00 -4.38978E-04  2.86475E-05  3.06097E-05  6.67084E-06  1.50000E+01
  2.07233E+01  2.01522E+01  1.97468E+01  5.83318E-01 -1.48013E+00 -8.44241E-03  6.71817E-01 -2.71992E-04  3.57470E-04 -1.64315E-04  1.62155E-03 -4.65362E+00 -5.15571E-04  3.28292E-05  3.46559E-05  7.47544E-06  1.50000E+01
  2.07114E+01  2.01342E+01  1.97346E+01  5.65927E-01 -1.46760E+00 -8.60467E-03  8.61622E-01 -3.07595E-04  3.80986E-04 -1.91494E-04  1.55271E-03 -4.61114E+00 -4.82562E-04  2.85844E-05  3.10160E-05  6.55006E-06  1.50000E+01
  2.04566E+01  1.99580E+01  2.01117E+01  3.92948E-01 -1.13996E+00  8.66636E-04  1.01299E+00 -3.12789E-04  3.83605E-04  1.02054E-04  1.93796E-03 -3.26695E+00  5.95325E-05  1.40976E-05  1.23772E-05 -1.24712E-08  1.50000E+01
  2.01320E+01  1.96744E+01  2.01908E+01  8.11625E-02 -6.16995E-01 -4.40599E-03  4.44209E-01 -1.10696E-04  2.42474E-04  1.28740E-04  3.17847E-03 -1.94102E+00 -1.94414E-03  3.59391E-05  2.20778E-05  2.89508E-06  1.50000E+01
  2.01162E+01  1.96578E+01  2.02016E+01  5.77977E-02 -5.81826E-01 -2.67558E-03  3.80537E-01 -8.83339E-05  2.33826E-04  1.22974E-04  2.60424E-03 -1.83151E+00 -2.21201E-03  4.56609E-05  2.84787E-05  1.39699E-06  1.50000E+01
  2.01364E+01  1.96629E+01  2.02145E+01  6.51617E-02 -6.12990E-01 -2.63097E-03  4.44730E-01 -8.73109E-05  2.28911E-04  1.29817E-04  2.29436E-03 -1.93382E+00 -1.93907E-03  4.73666E-05  2.95477E-05  2.94305E-06  1.50000E+01
  2.07581E+01  2.01658E+01  1.97149E+01  6.01852E-01 -1.52724E+00 -7.23221E-03 -2.63111E-01 -5.70959E-05  1.48930E-04 -5.27778E-05  1.79737E-03 -4.81335E+00 -7.14090E-04  3.98408E-05  4.19324E-05  1.15173E-05  1.50000E+01
  2.07760E+01  2.01714E+01  1.96990E+01  6.10554E-01 -1.55179E+00 -6.02108E-03 -1.19035E-01 -1.29400E-05  6.42619E-05 -2.03926E-05  2.73556E-02 -2.48309E+00  1.01215E-03  2.13753E-05  2.26029E-05  6.79411E-06  1.50000E+01
  2.07643E+01  2.01536E+01  1.96872E+01  5.92868E-01 -1.53990E+00 -6.22450E-03  5.46021E-01 -1.21648E-04  2.23625E-04 -1.11138E-04  1.91990E-03 -4.85505E+00 -6.49608E-04  3.93880E-05  4.22005E-05  1.17502E-05  1.50000E+01
  2.07170E+01  2.01229E+01  1.97069E+01  5.57293E-01 -1.47860E+00 -8.40908E-03  8.45158E-01 -2.89320E-04  3.61175E-04 -2.02855E-04  1.54029E-03 -4.64934E+00 -5.23818E-04  2.79371E-05  3.08952E-05  6.49269E-06  1.50000E+01
  2.07287E+01  2.01413E+01  1.97187E+01  5.75169E-01 -1.49102E+00 -8.22287E-03  8.15283E-01 -2.48895E-04  3.29873E-04 -1.70541E-04  1.63678E-03 -4.69081E+00 -5.55657E-04  3.06181E-05  3.30100E-05  7.29831E-06  1.50000E+01
  2.03714E+01  1.99004E+01  1.99675E+01  3.37967E-01 -1.02551E+00  2.85385E-04  8.79306E-01 -2.98008E-04  3.93021E-04 -3.20959E-05  2.67149E-03 -3.29844E+00 -5.81039E-05  1.27212E-05  1.02566E-05 -2.78895E-07  1.50000E+01
  2.03558E+01  1.98873E+01  2.00392E+01  3.25147E-01 -1.00352E+00 -8.82480E-04  8.31388E-01 -2.93999E-04  3.94536E-04  4.01372E-05  2.71171E-03 -3.39868E+00 -2.25258E-04  1.35929E-05  1.08038E-05  3.75542E-07  1.50000E+01
  2.03549E+01  1.98884E+01  2.00105E+01  3.26356E-01 -1.00256E+00 -4.34472E-04  8.18540E-01 -2.86871E-04  3.84945E-04  1.08681E-05  2.80640E-03 -3.31691E+00 -2.00456E-04  1.28379E-05  1.02107E-05  1.11325E-07  1.50000E+01
  2.07560E+01  2.00880E+01  1.96122E+01  5.34260E-01 -1.54368E+00 -4.28665E-03  7.01211E-01 -2.09209E-04  2.87933E-04 -2.18575E-04  1.83861E-03 -4.86809E+00 -5.50426E-04  2.49330E-05  3.06688E-05  8.98599E-06  1.50000E+01
  2.06824E+01  2.01081E+01  1.97383E+01  5.39157E-01 -1.43197E+00 -8.69047E-03  1.02979E+00 -3.63709E-04  4.21876E-04 -2.18897E-04  1.47996E-03 -4.49396E+00 -3.47288E-04  2.54842E-05  2.79560E-05  5.04689E-06  1.50000E+01
  2.06943E+01  2.01265E+01  1.97505E+01  5.56567E-01 -1.44482E+00 -8.63771E-03  9.51703E-01 -3.45419E-04  4.13075E-04 -1.98464E-04  1.49685E-03 -4.53401E+00 -3.98261E-04  2.66776E-05  2.89934E-05  5.84827E-06  1.50000E+01
  2.03398E+01  1.98728E+01  2.00538E+01  3.10758E-01 -9.80012E-01 -1.31368E-03  8.15445E-01 -2.75261E-04  3.76484E-04  5.27694E-05  2.91700E-03 -3.31465E+00 -1.64411E-04  1.38374E-05  1.08189E-05  5.25662E-07  1.50000E+01
  2.03223E+01  1.98609E+01  2.00396E+01  2.99031E-01 -9.55002E-01 -1.22016E-03  7.24951E-01 -2.61715E-04  3.63981E-04  3.80222E-05  3.07845E-03 -3.16878E+00 -1.44056E-04  1.32559E-05  1.02029E-05  4.30994E-07  1.50000E+01
  2.03237E+01  1.98579E+01  2.00679E+01  2.95763E-01 -9.55979E-01 -1.84028E-03  7.64878E-01 -2.54210E-04  3.54823E-04  6.33989E-05  3.03816E-03 -3.19754E+00 -1.70942E-04  1.42022E-05  1.08917E-05  7.62689E-07  1.50000E+01
  2.04546E+01  1.99625E+01  2.00856E+01  3.97294E-01 -1.13762E+00  7.33988E-04  9.98843E-01 -3.14003E-04  3.86489E-04  7.85203E-05  1.98417E-03 -3.26472E+00 -6.64186E-05  1.35968E-05  1.18493E-05 -1.13462E-08  1.50000E+01
  2.04529E+01  1.99657E+01  2.00592E+01  4.00292E-01 -1.13576E+00  6.11239E-04  9.78567E-01 -3.15166E-04  3.89102E-04  5.44016E-05  2.14463E-03 -3.32680E+00 -1.76068E-04  1.33362E-05  1.15551E-05  6.21468E-08  1.50000E+01
  2.04666E+01  1.99815E+01  2.00180E+01  4.15051E-01 -1.15399E+00  5.40051E-04  9.76444E-01 -3.30710E-04  4.04405E-04  1.68121E-05  2.19140E-03 -3.46898E+00  6.04029E-05  1.31479E-05  1.14711E-05  3.45885E-08  1.50000E+01
  2.04510E+01  1.99683E+01  2.00049E+01  4.02679E-01 -1.13377E+00  4.38555E-04  9.27681E-01 -3.26904E-04  4.03463E-04  4.40278E-06  2.24733E-03 -3.43379E+00  1.72902E-04  1.29629E-05  1.11842E-05  7.63986E-09  1.50000E+01
  2.07346E+01  2.01294E+01  1.96912E+01  5.66175E-01 -1.50288E+00 -7.68410E-03  7.51256E-01 -2.32550E-04  3.13472E-04 -1.79932E-04  1.65593E-03 -4.73147E+00 -5.81682E-04  3.08130E-05  3.37585E-05  7.48094E-06  1.50000E+01
  2.07412E+01  2.01165E+01  1.96642E+01  5.56352E-01 -1.51565E+00 -6.83473E-03  7.86470E-01 -2.31215E-04  3.07417E-04 -1.97342E-04  1.72105E-03 -4.77530E+00 -5.85181E-04  2.86017E-05  3.21740E-05  7.57551E-06  1.50000E+01
  2.06762E+01  2.00777E+01  1.96993E+01  5.12172E-01 -1.42937E+00 -8.74950E-03  1.03969E+00 -3.65275E-04  4.11900E-04 -2.54704E-04  1.44835E-03 -4.49173E+00 -3.14799E-04  2.37069E-05  2.69376E-05  4.51375E-06  1.50000E+01
  2.03470E+01  1.98569E+01  2.01384E+01  2.93235E-01 -9.84937E-01 -2.59212E-03  8.30277E-01 -2.69568E-04  3.65354E-04  1.31027E-04  2.42469E-03 -3.28626E+00 -2.89976E-04  1.62713E-05  1.27149E-05  1.11038E-06  1.50000E+01
  2.03317E+01  1.98399E+01  2.01509E+01  2.75375E-01 -9.60728E-01 -3.27401E-03  8.20211E-01 -2.50794E-04  3.46796E-04  1.37170E-04  2.45886E-03 -3.16137E+00 -3.86104E-04  1.67833E-05  1.27775E-05  1.51739E-06  1.50000E+01
  2.03504E+01  1.98488E+01  2.01654E+01  2.84214E-01 -9.87056E-01 -2.87711E-03  8.40998E-01 -2.62851E-04  3.55965E-04  1.52447E-04  2.25955E-03 -3.23593E+00 -3.20502E-04  1.74152E-05  1.36221E-05  1.33167E-06  1.50000E+01
  2.07463E+01  2.01478E+01  1.97029E+01  5.84195E-01 -1.51512E+00 -7.44027E-03  5.76757E-01 -1.65417E-04  2.57661E-04 -1.30781E-04  1.76315E-03 -4.77254E+00 -6.16742E-04  3.36026E-05  3.63287E-05  9.22217E-06  1.50000E+01
  2.07003E+01  2.00717E+01  1.96574E+01  5.10394E-01 -1.46538E+00 -8.30724E-03  9.76808E-01 -3.34833E-04  3.81359E-04 -2.69686E-04  1.40082E-03 -4.61184E+00 -4.50664E-04  2.27280E-05  2.73053E-05  5.73599E-06  1.50000E+01
  2.06824E+01  2.00651E+01  1.96727E+01  5.02093E-01 -1.44057E+00 -8.65100E-03  1.02584E+00 -3.55263E-04  3.96990E-04 -2.70742E-04  1.40121E-03 -4.53014E+00 -3.44974E-04  2.26717E-05  2.67389E-05  4.92034E-06  1.50000E+01
  2.04202E+01  1.98924E+01  2.01979E+01  3.28261E-01 -1.08617E+00 -9.56292E-04  9.50768E-01 -2.98944E-04  3.75314E-04  1.84882E-04  2.21212E-03 -3.37890E+00 -3.50099E-04  1.76525E-05  1.50854E-05  7.41272E-07  1.50000E+01
  2.04343E+01  1.99103E+01  2.01865E+01  3.46170E-01 -1.10697E+00 -3.96193E-04  9.81561E-01 -3.05312E-04  3.78571E-04  1.73544E-04  2.07902E-03 -3.37844E+00 -3.90261E-04  1.70008E-05  1.48366E-05  3.58174E-07  1.50000E+01
  2.04061E+01  1.98740E+01  2.02092E+01  3.09682E-01 -1.06457E+00 -1.51982E-03  9.19407E-01 -2.92211E-04  3.70707E-04  1.95449E-04  2.16737E-03 -3.36141E+00 -3.36866E-04  1.82387E-05  1.53293E-05  9.75399E-07  1.50000E+01
  2.04038E+01  1.99269E+01  1.99659E+01  3.63532E-01 -1.07050E+00  2.82032E-04  9.14596E-01 -3.16947E-04  4.06234E-04 -3.41042E-05  2.65453E-03 -3.37808E+00  3.38066E-05  1.29026E-05  1.06987E-05 -2.97655E-07  1.50000E+01
  2.07298E+01  2.00974E+01  1.96531E+01  5.37607E-01 -1.50329E+00 -7.18797E-03  8.77292E-01 -2.72470E-04  3.37397E-04 -2.32099E-04  1.58613E-03 -4.73553E+00 -5.73683E-04  2.40447E-05  2.87164E-05  7.35565E-06  1.50000E+01
  2.07371E+01  2.00832E+01  1.96271E+01  5.26598E-01 -1.51689E+00 -6.19216E-03  8.00064E-01 -2.59546E-04  3.26265E-04 -2.43999E-04  1.62032E-03 -4.78045E+00 -5.80819E-04  2.34198E-05  2.89487E-05  7.83055E-06  1.50000E+01
  2.07185E+01  2.00777E+01  1.96421E+01  5.18595E-01 -1.49080E+00 -7.51477E-03  9.05464E-01 -3.03876E-04  3.59163E-04 -2.62129E-04  1.47938E-03 -4.69570E+00 -5.37133E-04  2.29345E-05  2.80560E-05  6.76410E-06  1.50000E+01
  2.06646E+01  2.00581E+01  1.96880E+01  4.93736E-01 -1.41627E+00 -8.63778E-03  1.04747E+00 -3.73062E-04  4.11541E-04 -2.70256E-04  1.45357E-03 -4.45137E+00 -2.43952E-04  2.22727E-05  2.57206E-05  4.15486E-06  1.50000E+01
  2.04731E+01  1.99686E+01  2.01253E+01  4.02951E-01 -1.16156E+00  1.38124E-03  1.02306E+00 -3.30296E-04  4.00751E-04  1.18025E-04  2.25144E-03 -3.41891E+00  1.12121E-05  1.53338E-05  1.37507E-05 -3.35466E-07  1.50000E+01
  2.04591E+01  1.99522E+01  2.01376E+01  3.87262E-01 -1.14281E+00  9.14127E-04  1.01023E+00 -3.13251E-04  3.83251E-04  1.25944E-04  2.01496E-03 -3.33171E+00  5.44567E-05  1.51909E-05  1.34914E-05 -1.12129E-07  1.50000E+01
  2.03441E+01  1.98638E+01  2.01107E+01  3.00827E-01 -9.83074E-01 -2.21593E-03  7.93876E-01 -2.76362E-04  3.76254E-04  1.07851E-04  2.62614E-03 -3.34143E+00 -1.97952E-04  1.56276E-05  1.21530E-05  1.10734E-06  1.50000E+01
  2.03259E+01  1.98534E+01  2.00960E+01  2.90655E-01 -9.57303E-01 -2.39836E-03  7.98005E-01 -2.58252E-04  3.59110E-04  9.04335E-05  2.86869E-03 -3.20535E+00 -2.11679E-04  1.50278E-05  1.14898E-05  1.03964E-06  1.50000E+01
  2.01205E+01  1.96458E+01  2.02248E+01  4.07300E-02 -5.76138E-01  0.00000E+00  7.80667E-02 -7.49529E-06  6.73565E-05  3.30437E-05  8.98266E+00  2.58463E+01 -3.00817E+01  2.69606E-05  1.69464E-05  6.03582E-07  1.50000E+01
  2.07900E+01  2.01448E+01  1.96449E+01  5.90615E-01 -1.57974E+00 -2.68845E-03  9.25718E-03 -3.14124E-06  4.22963E-05 -1.23568E-05  2.70755E-02 -2.53001E+00  2.22297E-03  1.69672E-05  1.85039E-05  5.52023E-06  1.50000E+01
  2.07785E+01  2.01263E+01  1.96338E+01  5.72169E-01 -1.56794E+00 -3.10073E-03  5.84218E-02 -4.45975E-05  1.28848E-04 -6.25720E-05  1.96051E-03 -4.94656E+00 -6.18525E-04  3.24963E-05  3.69786E-05  1.13267E-05  1.50000E+01
  2.06891E+01  2.00516E+01  1.96466E+01  4.91298E-01 -1.45256E+00 -8.38021E-03  1.02160E+00 -3.53185E-04  3.89809E-04 -2.91257E-04  1.37468E-03 -4.57184E+00 -3.70476E-04  2.13883E-05  2.63505E-05  5.39618E-06  1.50000E+01
  2.06710E+01  2.00451E+01  1.96617E+01  4.83179E-01 -1.42751E+00 -8.56824E-03  1.03705E+00 -3.68327E-04  4.01370E-04 -2.89681E-04  1.40349E-03 -4.48977E+00 -2.65325E-04  2.13183E-05  2.56140E-05  4.56233E-06  1.50000E+01
  2.03547E+01  1.98880E+01  1.99823E+01  3.25929E-01 -1.00223E+00  7.62858E-05  8.18655E-01 -2.82290E-04  3.78780E-04 -1.69030E-05  2.76756E-03 -3.25900E+00 -1.00262E-04  1.26397E-05  1.00524E-05 -1.75291E-07  1.50000E+01
  2.04621E+01  1.99452E+01  2.01635E+01  3.80351E-01 -1.14627E+00  8.87769E-04  9.92564E-01 -3.23361E-04  3.93065E-04  1.53885E-04  1.90073E-03 -3.40740E+00 -2.32074E-04  1.61560E-05  1.44921E-05 -1.09664E-07  1.50000E+01
  2.03690E+01  1.98574E+01  2.01801E+01  2.92834E-01 -1.01315E+00 -2.43088E-03  8.71769E-01 -2.74006E-04  3.62891E-04  1.67667E-04  2.09525E-03 -3.28735E+00 -2.47958E-04  1.79334E-05  1.43756E-05  1.21280E-06  1.50000E+01
  2.03876E+01  1.98658E+01  2.01947E+01  3.01306E-01 -1.03897E+00 -1.98391E-03  9.12160E-01 -2.84827E-04  3.69629E-04  1.82913E-04  2.05219E-03 -3.32307E+00 -2.63861E-04  1.82901E-05  1.49726E-05  1.18544E-06  1.50000E+01
  2.01476E+01  1.96910E+01  2.01797E+01  1.03454E-01 -6.50223E-01 -5.40242E-03  4.47565E-01 -1.09617E-04  2.26583E-04  1.13491E-04  3.14007E-03 -2.04977E+00 -1.56645E-03  3.09785E-05  1.92694E-05  2.90510E-06  1.50000E+01
  2.01279E+01  1.96846E+01  2.01666E+01  9.54040E-02 -6.19791E-01 -5.24495E-03  4.04673E-01 -1.01097E-04  2.18858E-04  1.00419E-04  3.76001E-03 -1.94248E+00 -1.68354E-03  3.11816E-05  1.94089E-05  2.23955E-06  1.50000E+01
  2.07448E+01  2.00682E+01  1.96017E+01  5.14846E-01 -1.53124E+00 -4.97418E-03  8.36786E-01 -2.53687E-04  3.21139E-04 -2.60211E-04  1.68889E-03 -4.82837E+00 -5.63950E-04  2.28305E-05  2.92531E-05  8.37164E-06  1.50000E+01
  2.03049E+01  1.98488E+01  2.00258E+01  2.86930E-01 -9.29823E-01 -9.79726E-04  7.36843E-01 -2.52671E-04  3.57455E-04  2.46619E-05  3.10108E-03 -3.04620E+00 -9.56530E-05  1.27322E-05  9.65326E-06  2.88871E-07  1.50000E+01
  2.03060E+01  1.98466E+01  2.00537E+01  2.84482E-01 -9.30477E-01 -1.75520E-03  7.50719E-01 -2.43195E-04  3.45437E-04  4.92263E-05  3.13950E-03 -3.06715E+00 -1.71288E-04  1.35161E-05  1.02082E-05  6.23204E-07  1.50000E+01
  2.04708E+01  1.99737E+01  2.00989E+01  4.07848E-01 -1.15874E+00  1.18331E-03  1.02844E+00 -3.33485E-04  4.05421E-04  9.40685E-05  2.22393E-03 -3.39693E+00 -1.97974E-05  1.44470E-05  1.27878E-05 -1.25153E-07  1.50000E+01
  2.04689E+01  1.99776E+01  2.00723E+01  4.11482E-01 -1.15653E+00  9.52106E-04  1.01690E+00 -3.32962E-04  4.06090E-04  6.86516E-05  2.21685E-03 -3.40575E+00 -6.30086E-05  1.39358E-05  1.22496E-05 -7.83945E-08  1.50000E+01
  2.03355E+01  1.98311E+01  2.01774E+01  2.65555E-01 -9.62767E-01 -3.52874E-03  8.36297E-01 -2.50089E-04  3.44730E-04  1.60505E-04  2.22818E-03 -3.13963E+00 -4.16524E-04  1.82646E-05  1.39101E-05  1.78597E-06  1.50000E+01
  2.03206E+01  1.98132E+01  2.01893E+01  2.46323E-01 -9.37825E-01 -4.11654E-03  8.23106E-01 -2.40023E-04  3.36664E-04  1.69420E-04  2.16440E-03 -3.04292E+00 -5.07204E-04  1.92510E-05  1.42249E-05  2.29502E-06  1.50000E+01
  2.03396E+01  1.98211E+01  2.02034E+01  2.54512E-01 -9.65025E-01 -3.65066E-03  8.49842E-01 -2.49367E-04  3.41695E-04  1.82817E-04  2.04098E-03 -3.12450E+00 -4.47811E-04  1.93214E-05  1.47595E-05  1.93926E-06  1.50000E+01
  2.06531E+01  2.00382E+01  1.96768E+01  4.75010E-01 -1.40290E+00 -8.43576E-03  1.06569E+00 -3.78974E-04  4.10838E-04 -2.85474E-04  1.46796E-03 -4.41031E+00 -1.74895E-04  2.16314E-05  2.52387E-05  3.83683E-06  1.50000E+01
  2.03386E+01  1.98748E+01  2.00253E+01  3.12980E-01 -9.79034E-01 -7.87968E-04  7.83037E-01 -2.75726E-04  3.76357E-04  2.50755E-05  2.96668E-03 -3.25736E+00 -1.68581E-04  1.29224E-05  1.01218E-05  2.77515E-07  1.50000E+01
  2.03381E+01  1.98753E+01  1.99969E+01  3.13446E-01 -9.78540E-01 -1.95161E-04  7.79248E-01 -2.73400E-04  3.73088E-04 -2.58507E-06  2.88562E-03 -3.20634E+00 -1.07158E-04  1.24956E-05  9.79546E-06 -2.53247E-08  1.50000E+01
  2.04675E+01  1.99802E+01  2.00453E+01  4.13874E-01 -1.15494E+00  7.36171E-04  9.93480E-01 -3.30874E-04  4.04263E-04  4.27064E-05  2.25353E-03 -3.43597E+00 -6.57667E-05  1.35187E-05  1.18207E-05  9.31494E-09  1.50000E+01
  2.07259E+01  2.00633E+01  1.96165E+01  5.07224E-01 -1.50435E+00 -6.66941E-03  9.15257E-01 -2.94610E-04  3.49010E-04 -2.76753E-04  1.49737E-03 -4.74053E+00 -5.50718E-04  2.17963E-05  2.80198E-05  7.46288E-06  1.50000E+01
  2.07074E+01  2.00577E+01  1.96315E+01  4.99336E-01 -1.47815E+00 -7.77854E-03  9.78022E-01 -3.29753E-04  3.73211E-04 -2.87722E-04  1.40992E-03 -4.65575E+00 -4.72895E-04  2.12402E-05  2.69718E-05  6.49094E-06  1.50000E+01
  2.03285E+01  1.98474E+01  2.01237E+01  2.83806E-01 -9.58907E-01 -2.88628E-03  7.79369E-01 -2.54305E-04  3.52562E-04  1.14255E-04  2.68449E-03 -3.18836E+00 -2.91595E-04  1.57256E-05  1.19890E-05  1.28570E-06  1.50000E+01
  2.03102E+01  1.98376E+01  2.01092E+01  2.74056E-01 -9.32725E-01 -3.08013E-03  7.77599E-01 -2.38923E-04  3.38924E-04  9.82072E-05  2.82726E-03 -3.07966E+00 -3.28012E-04  1.53269E-05  1.14625E-05  1.30473E-06  1.50000E+01
  2.04969E+01  2.00084E+01  1.99895E+01  4.40012E-01 -1.19274E+00  1.47144E-04  1.05106E+00 -3.66405E-04  4.39505E-04 -1.09660E-05  2.15734E-03 -3.62254E+00  2.63265E-05  1.43331E-05  1.27377E-05  6.11491E-09  1.50000E+01
  2.04818E+01  1.99945E+01  1.99761E+01  4.27083E-01 -1.17359E+00  4.94267E-05  1.03198E+00 -3.50824E-04  4.24888E-04 -2.40138E-05  2.18136E-03 -3.57319E+00  8.76522E-05  1.40434E-05  1.23771E-05 -1.79868E-08  1.50000E+01
  2.04817E+01  1.99951E+01  2.00038E+01  4.27694E-01 -1.17341E+00  4.01765E-04  1.02848E+00 -3.45585E-04  4.18569E-04  3.32958E-06  2.17725E-03 -3.54634E+00  3.98564E-05  1.37058E-05  1.20712E-05 -9.78740E-09  1.50000E+01
  2.07338E+01  2.00479E+01  1.95914E+01  4.95170E-01 -1.51864E+00 -5.64497E-03  9.10998E-01 -2.92532E-04  3.50301E-04 -2.99283E-04  1.55033E-03 -4.78827E+00 -5.39472E-04  2.20229E-05  2.94626E-05  8.29505E-06  1.50000E+01
  2.04793E+01  1.99546E+01  2.01777E+01  3.89512E-01 -1.16911E+00  1.59410E-03  1.02277E+00 -3.35901E-04  4.02472E-04  1.69277E-04  2.03756E-03 -3.50814E+00 -1.61785E-04  1.69606E-05  1.56439E-05 -5.17096E-07  1.50000E+01
  2.04759E+01  1.99622E+01  2.01516E+01  3.96809E-01 -1.16501E+00  1.51136E-03  1.02947E+00 -3.32382E-04  4.01033E-04  1.43428E-04  2.16956E-03 -3.46094E+00 -2.01581E-05  1.59321E-05  1.44664E-05 -4.02387E-07  1.50000E+01
  2.03078E+01  1.98428E+01  2.00816E+01  2.80169E-01 -9.31453E-01 -2.46285E-03  7.43133E-01 -2.37494E-04  3.37890E-04  7.33197E-05  3.02253E-03 -3.07944E+00 -2.49396E-04  1.44422E-05  1.08467E-05  1.01880E-06  1.50000E+01
  2.03587E+01  1.98288E+01  2.02175E+01  2.62604E-01 -9.92092E-01 -3.15469E-03  8.81448E-01 -2.60266E-04  3.48023E-04  1.97516E-04  1.96698E-03 -3.19770E+00 -4.11693E-04  1.97338E-05  1.53780E-05  1.97242E-06  1.50000E+01
  2.03777E+01  1.98364E+01  2.02316E+01  2.70622E-01 -1.01902E+00 -2.64579E-03  9.15211E-01 -2.75073E-04  3.58735E-04  2.15207E-04  1.94290E-03 -3.26486E+00 -4.12279E-04  2.00422E-05  1.59738E-05  1.92974E-06  1.50000E+01
  2.03731E+01  1.98475E+01  2.02061E+01  2.82258E-01 -1.01590E+00 -2.58727E-03  9.00003E-01 -2.72747E-04  3.58967E-04  1.90399E-04  2.03979E-03 -3.26802E+00 -3.36250E-04  1.89353E-05  1.52334E-05  1.39765E-06  1.50000E+01
  2.01084E+01  1.96779E+01  2.01536E+01  8.68626E-02 -5.88979E-01 -4.84818E-03  4.00086E-01 -8.68888E-05  2.04644E-04  8.40960E-05  4.50007E-03 -1.82928E+00 -1.74604E-03  3.30402E-05  2.04461E-05  1.90242E-06  1.50000E+01
  2.00923E+01  1.96625E+01  2.01649E+01  6.52510E-02 -5.55128E-01 -3.97506E-03  3.93457E-01 -9.74415E-05  2.39949E-04  1.06791E-04  4.37617E-03 -1.71206E+00 -2.35108E-03  3.85628E-05  2.30010E-05  2.12641E-06  1.50000E+01