 TITLE="3D TRIANGULAR SURFACE DATA"
VARIABLES="X","Y","Z","U","V","W","P", "Fex", "Fey", "Fez","Finx","Finy","Finz","WSSx","WSSy","WSSz","AMForce"
 ZONE T="unstruc"N=        1757 E=        3355 F=FEPOINT  ET=TRIANGLE
  2.04613E+01  2.03492E+01  2.00930E+01 -1.46224E-01  3.40064E-01 -3.43768E-02  1.38913E-01  4.36195E-05  5.22628E-05  3.66052E-07  2.14083E-04  1.40922E+00 -2.03530E-03  3.43193E-05 -3.83337E-06  1.07847E-05  1.50000E+01
  2.04831E+01  2.03455E+01  2.00935E+01 -1.35691E-01  3.69614E-01 -3.53556E-02  7.17352E-02  1.87524E-05  1.57038E-05  2.64087E-06 -7.83199E-03  7.19207E-01  1.10410E-03  1.56861E-05 -1.82668E-06  5.76407E-06  1.50000E+01
  2.04786E+01  2.03430E+01  2.00731E+01 -1.35265E-01  3.67473E-01 -2.88555E-02  4.71167E-02  2.58868E-05  1.60420E-05  4.52664E-06  2.83367E-04  1.05165E+00 -5.81769E-03  2.25958E-05 -3.03779E-06  7.05779E-06  1.50000E+01
  2.04576E+01  2.03559E+01  2.01227E+01 -1.49841E-01  3.26008E-01 -4.48619E-02  5.97138E-02  3.84539E-05  3.83176E-05  3.47944E-06 -6.17473E-04  1.13893E+00 -4.35932E-03  3.19117E-05 -2.43687E-06  1.25742E-05  1.50000E+01
  2.04789E+01  2.03502E+01  2.01136E+01 -1.37258E-01  3.57973E-01 -4.15946E-02  1.10067E-01  3.27862E-05  4.72903E-05 -1.32301E-06  2.11222E-03  1.02032E+00  6.07421E-03  2.40239E-05 -2.33696E-06  9.29013E-06  1.50000E+01
  2.04982E+01  2.03448E+01  2.01052E+01 -1.26568E-01  3.87348E-01 -4.09130E-02  4.51023E-02  2.40544E-05  2.00871E-05  4.02770E-06 -2.72751E-03  9.49966E-01 -2.64514E-03  1.99550E-05 -2.15274E-06  8.41721E-06  1.50000E+01
  2.04980E+01  2.03408E+01  2.00823E+01 -1.25344E-01  3.92855E-01 -3.21447E-02  6.95703E-02  2.36740E-05  1.98353E-05  3.78254E-06 -3.03855E-03  9.70570E-01  1.97549E-03  1.95555E-05 -2.57993E-06  7.26731E-06  1.50000E+01
  2.04762E+01  2.03405E+01  2.00473E+01 -1.34653E-01  3.68504E-01 -1.86979E-02  3.17402E-02  2.68845E-05  1.51206E-05  3.52696E-06  4.23798E-04  1.15038E+00 -1.69511E-03  2.38427E-05 -3.63182E-06  5.31332E-06  1.50000E+01
  2.04571E+01  2.03454E+01  2.00630E+01 -1.46375E-01  3.41368E-01 -2.31056E-02  1.19864E-02  3.19320E-05  2.23710E-05  4.14809E-06  6.30271E-04  1.20429E+00  1.14551E-03  2.78381E-05 -3.63689E-06  7.45655E-06  1.50000E+01
  2.04554E+01  2.03430E+01  2.00354E+01 -1.46003E-01  3.43080E-01 -1.29593E-02 -7.47753E-03  2.64356E-05  3.17682E-06  4.06939E-06  2.94369E-04  1.13775E+00  1.55974E-04  2.54984E-05 -3.80267E-06  4.55802E-06  1.50000E+01
  2.04769E+01  2.03564E+01  2.01387E+01 -1.39832E-01  3.46332E-01 -5.12247E-02  7.11688E-03  2.94691E-05  1.09523E-05  9.67012E-06 -1.24638E-05  1.06266E+00 -1.41142E-04  2.75634E-05 -1.67628E-06  1.26412E-05  1.50000E+01
  2.04970E+01  2.03502E+01  2.01287E+01 -1.27568E-01  3.78050E-01 -4.89077E-02  9.15300E-02  2.81800E-05  2.27956E-05  4.99405E-06  1.97179E-03  1.06882E+00  8.29038E-04  2.36155E-05 -1.94365E-06  1.07669E-05  1.50000E+01
  2.04151E+01  2.03562E+01  2.00920E+01 -1.71556E-01  2.79329E-01 -3.02249E-02  6.78102E-03  3.74099E-05  3.21183E-05  2.99338E-06 -6.80899E-04  9.95307E-01 -1.60089E-03  3.25386E-05 -3.07981E-06  9.04694E-06  1.50000E+01
  2.04146E+01  2.03521E+01  2.00644E+01 -1.70196E-01  2.85696E-01 -2.11034E-02  4.52914E-02  3.71581E-05  5.33175E-05 -1.33489E-06 -2.94295E-04  1.00386E+00 -1.20341E-03  2.91654E-05 -3.50231E-06  5.64399E-06  1.50000E+01
  2.03937E+01  2.03569E+01  2.00779E+01 -1.82301E-01  2.53786E-01 -2.34032E-02 -3.68961E-02  3.33606E-05  1.27259E-05  4.64933E-06 -9.63794E-04  8.71162E-01 -1.17090E-03  3.20247E-05 -3.16587E-06  7.41979E-06  1.50000E+01
  2.04369E+01  2.03557E+01  2.01067E+01 -1.60547E-01  3.04007E-01 -3.73290E-02  7.86366E-02  4.02562E-05  3.44620E-05  4.69714E-06 -1.25386E-03  1.14858E+00 -1.51410E-03  3.44260E-05 -3.02647E-06  1.15045E-05  1.50000E+01
  2.04152E+01  2.03617E+01  2.01192E+01 -1.73131E-01  2.70201E-01 -3.89408E-02 -2.06499E-02  3.54832E-05  4.52676E-06  1.20133E-05 -1.13220E-03  9.37118E-01 -1.65168E-03  3.45137E-05 -2.17694E-06  1.26684E-05  1.50000E+01
  2.04361E+01  2.03621E+01  2.01341E+01 -1.62458E-01  2.92700E-01 -4.65585E-02 -1.29532E-02  3.21591E-05 -7.70416E-06  1.64374E-05 -3.76113E-04  1.00034E+00 -2.40978E-03  3.31588E-05 -1.64570E-06  1.42236E-05  1.50000E+01
  2.04367E+01  2.03507E+01  2.00783E+01 -1.58892E-01  3.11655E-01 -2.74994E-02  1.32609E-01  4.01993E-05  5.57637E-05 -8.34210E-07 -6.18420E-04  1.18208E+00 -1.46000E-03  3.12760E-05 -3.64808E-06  7.94496E-06  1.50000E+01
  2.04353E+01  2.03474E+01  2.00502E+01 -1.57908E-01  3.15519E-01 -1.73939E-02  1.66442E-02  3.20846E-05  2.84711E-05  1.46053E-06  5.06438E-04  1.09774E+00 -3.14590E-04  2.73426E-05 -3.67680E-06  5.16013E-06  1.50000E+01
  2.05164E+01  2.03391E+01  2.00940E+01 -1.14735E-01  4.16163E-01 -3.78186E-02  7.71031E-02  2.72939E-05  2.80096E-05  3.34554E-06 -1.30878E-03  1.12636E+00 -8.61192E-04  2.13509E-05 -2.68518E-06  8.83368E-06  1.50000E+01
  2.05160E+01  2.03355E+01  2.00695E+01 -1.13170E-01  4.20501E-01 -2.82662E-02  1.64117E-01  2.87271E-05  3.83984E-05  6.04982E-07 -1.17246E-03  1.18005E+00  4.08863E-04  2.06244E-05 -3.24778E-06  6.08155E-06  1.50000E+01
  2.05163E+01  2.03439E+01  2.01181E+01 -1.16136E-01  4.09196E-01 -4.70156E-02  3.70057E-02  2.52485E-05  1.17643E-05  7.77254E-06 -8.65380E-04  1.13818E+00 -1.88439E-03  2.25665E-05 -2.17863E-06  1.07359E-05  1.50000E+01
  2.04964E+01  2.03379E+01  2.00583E+01 -1.23644E-01  3.94392E-01 -2.36386E-02  9.45763E-02  2.67381E-05  2.56114E-05  2.17318E-06  8.96661E-04  1.13063E+00 -1.53079E-03  2.14809E-05 -3.39848E-06  5.46999E-06  1.50000E+01
  2.05153E+01  2.03330E+01  2.00443E+01 -1.11577E-01  4.22643E-01 -1.86801E-02  1.97585E-01  2.89546E-05  3.98948E-05  5.20008E-07  5.63177E-04  1.24954E+00 -7.81249E-04  2.04678E-05 -3.68080E-06  3.69134E-06  1.50000E+01
  2.04344E+01  2.03455E+01  2.00228E+01 -1.57356E-01  3.17646E-01 -7.57397E-03 -4.92293E-02  2.37678E-05 -1.48168E-05  3.11913E-06  5.62670E-04  1.06364E+00  1.23392E-04  2.56299E-05 -3.78118E-06  2.65087E-06  1.50000E+01
  2.04751E+01  2.03389E+01  2.00207E+01 -1.34300E-01  3.69598E-01 -8.27797E-03  3.28778E-02  2.64643E-05  1.44857E-05  1.71570E-06  2.73365E-04  1.17352E+00 -4.37979E-04  2.36381E-05 -3.92726E-06  2.51942E-06  1.50000E+01
  2.04546E+01  2.03419E+01  2.00084E+01 -1.45776E-01  3.43989E-01 -2.86628E-03 -1.04760E-03  2.45765E-05 -3.89431E-06  1.30063E-06  4.80341E-04  1.11969E+00  2.80955E-04  2.48374E-05 -3.93853E-06  1.27941E-06  1.50000E+01
  2.04151E+01  2.03683E+01  2.01456E+01 -1.74542E-01  2.58908E-01 -4.71943E-02  3.58022E-02  3.13654E-05 -1.35163E-05  1.71171E-05 -7.21116E-04  8.61698E-01 -1.94877E-03  3.30619E-05 -1.29848E-06  1.31316E-05  1.50000E+01
  2.04357E+01  2.03693E+01  2.01601E+01 -1.64198E-01  2.80192E-01 -5.48988E-02 -2.62480E-02  2.67633E-05 -2.80586E-05  2.25145E-05 -1.25756E-04  9.13488E-01 -2.52687E-03  3.14083E-05 -7.57738E-07  1.42450E-05  1.50000E+01
  2.08236E+01  2.03478E+01  1.96807E+01  4.83883E-03  7.95206E-01  1.31315E-01 -5.48266E-01 -6.95741E-06 -1.89920E-04 -1.26212E-04  3.55578E-03  2.50568E+00  1.65275E-03  2.78144E-05  4.60550E-06 -1.67687E-05  1.50000E+01
  2.08043E+01  2.03436E+01  1.96949E+01  2.73424E-03  7.68234E-01  1.23336E-01 -5.15616E-01 -1.20258E-05 -1.86401E-04 -1.18626E-04  3.19899E-03  2.41809E+00  1.29553E-03  2.69706E-05  3.83228E-06 -1.74086E-05  1.50000E+01
  2.08234E+01  2.03338E+01  1.97066E+01  1.91004E-02  8.08913E-01  1.24641E-01 -4.63444E-01 -4.88521E-06 -1.69156E-04 -1.04607E-04  3.31277E-03  2.54629E+00  1.38600E-03  2.71431E-05  3.05581E-06 -1.55752E-05  1.50000E+01
  2.08041E+01  2.03304E+01  1.97211E+01  1.57470E-02  7.81789E-01  1.16318E-01 -4.66313E-01 -6.47329E-06 -1.53898E-04 -9.19824E-05  2.97376E-03  2.45875E+00  1.07606E-03  2.65183E-05  2.37196E-06 -1.62249E-05  1.50000E+01
  2.08233E+01  2.03209E+01  1.97331E+01  3.17333E-02  8.21233E-01  1.16600E-01 -4.20266E-01  1.44447E-06 -1.28309E-04 -7.53260E-05  3.07437E-03  2.58272E+00  1.12513E-03  2.69275E-05  1.64445E-06 -1.44914E-05  1.50000E+01
  2.08820E+01  2.03655E+01  1.96399E+01  1.80303E-03  8.76280E-01  1.56020E-01 -5.14451E-01  1.88605E-05 -1.49635E-04 -1.19909E-04  3.91459E-03  2.76860E+00  3.00128E-03  3.28328E-05  6.71057E-06 -1.37621E-05  1.50000E+01
  2.08625E+01  2.03587E+01  1.96531E+01  4.52003E-03  8.49610E-01  1.47908E-01 -5.78795E-01  7.77725E-06 -1.86578E-04 -1.37651E-04  3.93454E-03  2.68237E+00  2.59654E-03  3.05285E-05  6.10105E-06 -1.49564E-05  1.50000E+01
  2.08817E+01  2.03492E+01  1.96649E+01  2.06356E-02  8.90744E-01  1.51223E-01 -5.28022E-01  1.80220E-05 -1.36060E-04 -1.01894E-04  3.74443E-03  2.81288E+00  2.58967E-03  3.25700E-05  5.27683E-06 -1.35344E-05  1.50000E+01
  2.05160E+01  2.03499E+01  2.01425E+01 -1.17703E-01  4.00092E-01 -5.56342E-02  3.21823E-02  2.38223E-05 -1.86082E-06  1.21963E-05  1.04315E-03  1.16775E+00 -4.80747E-04  2.40956E-05 -1.74755E-06  1.19333E-05  1.50000E+01
  2.08814E+01  2.03340E+01  1.96905E+01  3.75649E-02  9.03837E-01  1.44587E-01 -4.35240E-01  1.90819E-05 -1.01101E-04 -7.23571E-05  3.56670E-03  2.85281E+00  2.18390E-03  3.18283E-05  3.64002E-06 -1.26789E-05  1.50000E+01
  2.09009E+01  2.03401E+01  1.96768E+01  3.65246E-02  9.30550E-01  1.54122E-01 -4.03630E-01  2.93058E-05 -4.27526E-05 -4.15880E-05  3.59207E-03  2.93935E+00  2.50753E-03  3.51397E-05  4.41989E-06 -1.21961E-05  1.50000E+01
  2.05346E+01  2.03282E+01  2.00307E+01 -9.91809E-02  4.51525E-01 -1.35324E-02  1.32851E-01  2.46128E-05  2.04722E-05  1.73856E-06  6.73901E-04  1.35210E+00 -5.05515E-04  1.98407E-05 -3.86311E-06  2.80647E-06  1.50000E+01
  2.05149E+01  2.03315E+01  2.00184E+01 -1.10791E-01  4.23725E-01 -8.40604E-03  1.80081E-01  3.17833E-05  5.55374E-05 -3.19026E-07  7.13180E-04  1.28678E+00 -7.48561E-04  2.06688E-05 -3.92614E-06  1.62766E-06  1.50000E+01
  2.04564E+01  2.03628E+01  2.01492E+01 -1.52178E-01  3.13698E-01 -5.37301E-02 -2.07227E-02  2.69275E-05 -1.92651E-05  1.97802E-05 -3.10600E-04  1.01567E+00 -2.67324E-03  3.03640E-05 -1.08260E-06  1.45548E-05  1.50000E+01
  2.04560E+01  2.03704E+01  2.01746E+01 -1.54238E-01  3.00705E-01 -6.19573E-02 -9.41618E-02  2.21483E-05 -4.14830E-05  2.86229E-05  1.26259E-04  9.54450E-01 -2.50004E-03  2.95501E-05 -1.16145E-07  1.53182E-05  1.50000E+01
  2.04763E+01  2.03635E+01  2.01638E+01 -1.42252E-01  3.34379E-01 -6.02236E-02 -7.03742E-02  2.16079E-05 -3.64968E-05  2.68045E-05 -6.12347E-05  1.03629E+00 -1.56104E-03  2.84955E-05 -4.19475E-07  1.57283E-05  1.50000E+01
  2.04340E+01  2.03451E+01  1.99958E+01 -1.57215E-01  3.17987E-01  2.08329E-03 -4.32742E-02  2.25111E-05 -1.95366E-05 -5.00160E-07  6.61681E-04  1.04227E+00  5.29283E-04  2.50782E-05 -3.80479E-06 -4.18147E-07  1.50000E+01
  2.04746E+01  2.03385E+01  1.99940E+01 -1.34330E-01  3.69641E-01  2.11983E-03  3.55235E-02  2.62006E-05  1.42850E-05 -2.05027E-07  3.67313E-04  1.17259E+00  9.92047E-05  2.34420E-05 -3.96505E-06 -4.18566E-07  1.50000E+01
  2.04542E+01  2.03422E+01  1.99816E+01 -1.45988E-01  3.43302E-01  7.12773E-03  6.13631E-03  2.43362E-05 -3.33778E-06 -2.09605E-06  5.07995E-04  1.10326E+00  5.53009E-04  2.45378E-05 -3.85498E-06 -2.18096E-06  1.50000E+01
  2.08423E+01  2.03004E+01  1.97724E+01  5.80633E-02  8.69927E-01  1.06340E-01 -3.41210E-01  1.30333E-05 -7.40533E-05 -4.14370E-05  2.86997E-03  2.73376E+00  9.23956E-04  2.68255E-05 -1.48499E-07 -1.17694E-05  1.50000E+01
  2.08616E+01  2.03032E+01  1.97577E+01  6.26362E-02  8.98091E-01  1.16213E-01 -3.75641E-01  1.56577E-05 -7.72880E-05 -4.52809E-05  3.05423E-03  2.82708E+00  1.18422E-03  2.85242E-05  4.56061E-07 -1.16110E-05  1.50000E+01
  2.08424E+01  2.03118E+01  1.97453E+01  4.73543E-02  8.60035E-01  1.16586E-01 -3.97225E-01  9.03847E-06 -1.01638E-04 -5.89989E-05  3.09504E-03  2.70530E+00  1.16558E-03  2.74809E-05  1.06974E-06 -1.30152E-05  1.50000E+01
  2.05355E+01  2.03376E+01  2.01066E+01 -1.03815E-01  4.40249E-01 -4.37879E-02  1.35355E-01  2.92653E-05  3.26543E-05  2.25335E-06 -4.13454E-04  1.26405E+00 -1.30597E-03  2.20529E-05 -2.76586E-06  9.18991E-06  1.50000E+01
  2.01275E+01  2.03875E+01  2.01891E+01 -1.78971E-01 -4.04052E-01  4.48525E-02 -4.88560E-01  1.13834E-04 -1.31823E-04 -3.52489E-05 -2.49674E-02 -1.32266E+00  2.68417E-02  4.83793E-05  2.07500E-05  4.14452E-07  1.50000E+01
  2.01108E+01  2.03747E+01  2.02011E+01 -1.09662E-01 -5.26634E-01  2.15413E-02 -1.12390E+00  1.84811E-04 -1.76033E-04 -8.05532E-05  4.00857E-03 -1.70056E+00  3.54900E-03  5.12933E-05  3.01031E-05  2.82956E-06  1.50000E+01
  2.01308E+01  2.03816E+01  2.02136E+01 -1.25491E-01 -4.85603E-01  2.57006E-02 -6.48685E-01  1.48032E-04 -1.42420E-04 -5.59271E-05 -4.40968E-03 -1.57615E+00  1.06829E-02  5.40638E-05  2.92133E-05  3.56754E-06  1.50000E+01
  2.09004E+01  2.03112E+01  1.97289E+01  6.80277E-02  9.53626E-01  1.37121E-01 -1.88736E-01  3.33453E-05  7.91931E-08 -1.11630E-05  3.28575E-03  3.00980E+00  1.78924E-03  3.43721E-05  1.45992E-06 -1.06442E-05  1.50000E+01
  2.09199E+01  2.03165E+01  1.97149E+01  6.86849E-02  9.80457E-01  1.47893E-01 -7.09944E-02  1.93280E-05  1.88255E-05  4.01473E-06  1.79850E-02  1.61242E+00  1.38864E-02  1.78525E-05  1.17527E-06 -5.37436E-06  1.50000E+01
  2.09007E+01  2.03251E+01  1.97026E+01  5.32056E-02  9.42731E-01  1.46456E-01 -3.80125E-01  3.08178E-05 -1.37278E-05 -2.01940E-05  3.44344E-03  2.97667E+00  2.13013E-03  3.46703E-05  2.88908E-06 -1.15300E-05  1.50000E+01
  2.08426E+01  2.03244E+01  1.97186E+01  3.50713E-02  8.48852E-01  1.25643E-01 -4.40475E-01  3.25646E-06 -1.42192E-04 -8.66390E-05  3.32916E-03  2.67246E+00  1.45166E-03  2.78140E-05  2.45007E-06 -1.42032E-05  1.50000E+01
  2.08618E+01  2.03154E+01  1.97308E+01  5.06803E-02  8.87937E-01  1.26282E-01 -3.74212E-01  1.23472E-05 -1.04955E-04 -6.38520E-05  3.27352E-03  2.79713E+00  1.48280E-03  2.89199E-05  1.71682E-06 -1.25954E-05  1.50000E+01
  2.04337E+01  2.03460E+01  1.99692E+01 -1.57584E-01  3.16315E-01  1.15427E-02 -1.16247E-02  2.45923E-05 -5.07785E-06 -3.15464E-06  6.57430E-04  1.02268E+00  8.01193E-04  2.51166E-05 -3.62087E-06 -3.12960E-06  1.50000E+01
  2.04140E+01  2.03495E+01  2.00370E+01 -1.69195E-01  2.89474E-01 -1.18078E-02 -2.27372E-02  2.94311E-05  1.31585E-05  1.74798E-06  2.25495E-04  9.86473E-01 -3.84666E-04  2.73055E-05 -3.66593E-06  3.54661E-06  1.50000E+01
  2.04135E+01  2.03482E+01  2.00099E+01 -1.68659E-01  2.91059E-01 -2.62634E-03 -5.99523E-02  2.41258E-05 -1.68600E-05  1.24955E-06  4.75773E-04  9.69425E-01  2.16601E-04  2.63484E-05 -3.74448E-06  9.52347E-07  1.50000E+01
  2.08628E+01  2.03751E+01  1.96283E+01 -1.45372E-02  8.34061E-01  1.51709E-01 -5.35012E-01  9.73944E-06 -1.99890E-04 -1.58007E-04  4.15369E-03  2.63487E+00  3.01655E-03  3.01834E-05  7.62728E-06 -1.52095E-05  1.50000E+01
  2.08040E+01  2.03182E+01  1.97477E+01  2.72144E-02  7.93942E-01  1.08036E-01 -4.14304E-01  7.99060E-07 -1.14745E-04 -6.55190E-05  2.75703E-03  2.49376E+00  8.76971E-04  2.58572E-05  9.84779E-07 -1.47820E-05  1.50000E+01
  2.08231E+01  2.03091E+01  1.97600E+01  4.28083E-02  8.32204E-01  1.07336E-01 -3.91577E-01  7.29442E-06 -9.39167E-05 -5.23518E-05  2.84229E-03  2.61405E+00  8.95891E-04  2.61698E-05  3.00657E-07 -1.30123E-05  1.50000E+01
  2.03934E+01  2.03535E+01  2.00508E+01 -1.81102E-01  2.59053E-01 -1.50848E-02 -2.11819E-02  3.20000E-05  1.74973E-05  2.19698E-06 -5.98324E-04  8.81045E-01 -7.73355E-04  2.94678E-05 -3.50722E-06  4.34478E-06  1.50000E+01
  2.03723E+01  2.03551E+01  2.00373E+01 -1.91560E-01  2.31289E-01 -9.68563E-03 -7.04559E-02  2.79143E-05 -1.85745E-05  4.10741E-06 -1.13876E-03  7.68819E-01 -3.64575E-04  3.01981E-05 -3.49740E-06  3.10794E-06  1.50000E+01
  2.03726E+01  2.03577E+01  2.00640E+01 -1.92593E-01  2.27401E-01 -1.70553E-02 -7.22807E-02  3.08619E-05 -1.01125E-05  6.63799E-06 -1.51625E-03  7.60883E-01 -5.54326E-04  3.25382E-05 -3.23656E-06  6.15524E-06  1.50000E+01
  2.05353E+01  2.03333E+01  2.00816E+01 -1.02121E-01  4.45967E-01 -3.39266E-02  1.78628E-01  3.17256E-05  5.09877E-05 -1.44736E-06 -4.60375E-04  1.28216E+00 -7.13304E-04  2.06932E-05 -3.24009E-06  6.78319E-06  1.50000E+01
  2.05350E+01  2.03301E+01  2.00564E+01 -1.00486E-01  4.49648E-01 -2.37983E-02  2.54657E-01  2.66706E-05  2.92814E-05  1.51424E-06 -1.08588E-04  1.31956E+00 -1.58840E-04  1.99814E-05 -3.57344E-06  4.92375E-06  1.50000E+01
  2.05540E+01  2.03235E+01  2.00172E+01 -8.66687E-02  4.80276E-01 -8.08457E-03  8.94743E-02  2.42928E-05  1.86665E-05  1.37436E-06  8.03321E-04  1.44675E+00 -3.09745E-04  1.95128E-05 -4.06545E-06  2.02278E-06  1.50000E+01
  2.05344E+01  2.03274E+01  2.00047E+01 -9.86368E-02  4.51955E-01 -2.90053E-03  5.85878E-02  2.59627E-05  2.70111E-05  1.58617E-07  7.44181E-04  1.37081E+00 -5.12264E-04  1.99203E-05 -4.01844E-06  3.75945E-07  1.50000E+01
  2.08620E+01  2.03288E+01  1.97044E+01  3.70566E-02  8.76497E-01  1.35029E-01 -4.70333E-01  1.01603E-05 -1.29739E-04 -8.42872E-05  3.48908E-03  2.76333E+00  1.80978E-03  2.94420E-05  3.15223E-06 -1.36150E-05  1.50000E+01
  2.08622E+01  2.03432E+01  1.96785E+01  2.16948E-02  8.63742E-01  1.42294E-01 -5.02516E-01  8.69738E-06 -1.54452E-04 -1.07669E-04  3.71656E-03  2.72549E+00  2.18899E-03  2.96742E-05  4.67485E-06 -1.44428E-05  1.50000E+01
  2.07850E+01  2.03403E+01  1.97094E+01 -5.89057E-04  7.41845E-01  1.15808E-01 -5.19252E-01 -1.41091E-05 -1.73823E-04 -1.06771E-04  2.80873E-03  2.33317E+00  1.04939E-03  2.60958E-05  3.12320E-06 -1.78252E-05  1.50000E+01
  2.03942E+01  2.03675E+01  2.01312E+01 -1.84960E-01  2.36575E-01 -3.92213E-02 -6.52156E-03  3.66403E-05  1.51419E-05  8.08185E-06 -1.52658E-03  7.89797E-01 -1.12249E-03  3.43900E-05 -1.71486E-06  1.19717E-05  1.50000E+01
  2.03735E+01  2.03732E+01  2.01430E+01 -1.95969E-01  2.04692E-01 -3.84691E-02 -4.55932E-02  3.78235E-05  2.16533E-05  4.97702E-06 -2.27178E-03  6.67478E-01  4.75468E-04  3.57847E-05 -1.60118E-06  1.08751E-05  1.50000E+01
  2.03944E+01  2.03744E+01  2.01570E+01 -1.86013E-01  2.25326E-01 -4.67147E-02 -3.81632E-02  3.29023E-05 -1.00245E-05  1.60350E-05 -1.37719E-03  7.37312E-01 -9.20097E-04  3.41981E-05 -9.29345E-07  1.27872E-05  1.50000E+01
  2.08812E+01  2.03198E+01  1.97166E+01  5.26582E-02  9.15602E-01  1.36291E-01 -3.76501E-01  2.08505E-05 -7.84033E-05 -5.35895E-05  3.37402E-03  2.88819E+00  1.81484E-03  3.16827E-05  2.16148E-06 -1.18493E-05  1.50000E+01
  2.08045E+01  2.03579E+01  1.96691E+01 -1.18942E-02  7.53245E-01  1.28959E-01 -5.92328E-01 -1.55375E-05 -2.10994E-04 -1.43371E-04  3.43722E-03  2.37317E+00  1.52717E-03  2.72355E-05  5.38570E-06 -1.84186E-05  1.50000E+01
  2.07852E+01  2.03538E+01  1.96834E+01 -1.40107E-02  7.26982E-01  1.21802E-01 -5.72678E-01 -1.97837E-05 -2.04251E-04 -1.33191E-04  3.00992E-03  2.28817E+00  1.23513E-03  2.65471E-05  4.51009E-06 -1.88074E-05  1.50000E+01
  2.04761E+01  2.03715E+01  2.01888E+01 -1.44706E-01  3.20955E-01 -6.84159E-02 -7.97809E-02  1.83444E-05 -5.20139E-05  3.49205E-05  3.54571E-04  1.00175E+00 -2.17519E-03  2.84826E-05  6.25374E-07  1.69472E-05  1.50000E+01
  2.04961E+01  2.03642E+01  2.01781E+01 -1.32608E-01  3.55342E-01 -6.65802E-02 -8.94676E-02  1.78464E-05 -4.61335E-05  3.20195E-05  4.74056E-04  1.08724E+00 -1.45908E-03  2.73655E-05  2.24679E-07  1.70554E-05  1.50000E+01
  2.04559E+01  2.03788E+01  2.01996E+01 -1.56396E-01  2.85853E-01 -6.94532E-02 -1.59639E-01  1.80238E-05 -6.44456E-05  4.11099E-05  2.81851E-04  9.06256E-01 -2.72811E-03  2.96337E-05  1.26841E-06  1.75143E-05  1.50000E+01
  2.04743E+01  2.03395E+01  1.99676E+01 -1.34883E-01  3.68025E-01  1.23945E-02  4.48786E-02  2.58980E-05  1.05175E-05 -2.62635E-06  1.38420E-04  1.16291E+00  2.95158E-04  2.37601E-05 -3.78501E-06 -3.55728E-06  1.50000E+01
  2.08430E+01  2.03528E+01  1.96667E+01  5.49679E-03  8.22460E-01  1.39585E-01 -5.78207E-01 -6.57880E-07 -1.93094E-04 -1.34763E-04  3.82208E-03  2.59460E+00  2.11775E-03  2.86908E-05  5.34587E-06 -1.58121E-05  1.50000E+01
  2.08433E+01  2.03685E+01  1.96415E+01 -1.19412E-02  8.07160E-01  1.44168E-01 -6.15861E-01 -5.75122E-07 -2.14556E-04 -1.60089E-04  4.07584E-03  2.54775E+00  2.49718E-03  2.92226E-05  6.96279E-06 -1.65759E-05  1.50000E+01
  2.08238E+01  2.03627E+01  1.96551E+01 -1.11216E-02  7.80089E-01  1.36489E-01 -5.85676E-01 -8.61589E-06 -2.13177E-04 -1.51371E-04  3.82440E-03  2.46039E+00  1.97254E-03  2.80451E-05  6.03780E-06 -1.73526E-05  1.50000E+01
  2.07659E+01  2.03505E+01  1.96979E+01 -1.72177E-02  7.01521E-01  1.15138E-01 -5.03520E-01 -1.97506E-05 -1.85469E-04 -1.17629E-04  2.60374E-03  2.20663E+00  1.07087E-03  2.60284E-05  3.83784E-06 -1.93297E-05  1.50000E+01
  2.05549E+01  2.03362E+01  2.01198E+01 -9.29732E-02  4.64468E-01 -4.97386E-02  1.81657E-01  2.62814E-05  1.64575E-05  6.28640E-06  2.33560E-04  1.37055E+00 -1.34004E-03  2.23337E-05 -2.59886E-06  1.01991E-05  1.50000E+01
  2.05355E+01  2.03430E+01  2.01314E+01 -1.05613E-01  4.32491E-01 -5.31555E-02  4.06681E-02  2.25850E-05 -4.66073E-06  1.27581E-05  2.79708E-05  1.26361E+00 -1.61644E-03  2.33363E-05 -2.01292E-06  1.19344E-05  1.50000E+01
  2.03941E+01  2.03616E+01  2.01048E+01 -1.83659E-01  2.46209E-01 -3.14735E-02 -4.81837E-02  3.59852E-05  1.08664E-05  8.47616E-06 -1.29144E-03  8.39162E-01 -1.32994E-03  3.44944E-05 -2.40601E-06  1.11674E-05  1.50000E+01
  2.03729E+01  2.03617E+01  2.00907E+01 -1.93799E-01  2.21445E-01 -2.43087E-02 -8.67696E-02  3.39890E-05  1.22806E-06  7.92651E-06 -1.83638E-03  7.39949E-01 -5.15678E-04  3.42622E-05 -2.66207E-06  8.99419E-06  1.50000E+01
  2.01155E+01  2.03667E+01  2.02248E+01 -5.74666E-02 -5.85023E-01  0.00000E+00 -9.28559E-01  9.89152E-05 -8.40007E-05 -4.25095E-05 -4.64378E+00  2.77602E+00 -5.41507E+00  2.83229E-05  1.72507E-05  3.60870E-06  1.50000E+01
  2.09204E+01  2.03470E+01  1.96636E+01  3.39051E-02  9.56418E-01  1.63462E-01 -1.44307E-01  1.65136E-05 -1.90571E-05 -2.08581E-05  1.53455E-02  1.57599E+00  1.49886E-02  1.81771E-05  2.91890E-06 -6.35157E-06  1.50000E+01
  2.09012E+01  2.03561E+01  1.96517E+01  1.79165E-02  9.17044E-01  1.59925E-01 -3.80952E-01  2.71900E-05 -8.88099E-05 -7.63377E-05  3.72207E-03  2.89787E+00  2.91363E-03  3.56503E-05  6.23869E-06 -1.30624E-05  1.50000E+01
  2.07853E+01  2.03683E+01  1.96579E+01 -2.90423E-02  7.10629E-01  1.26369E-01 -6.12403E-01 -2.27705E-05 -2.24809E-04 -1.56261E-04  3.22346E-03  2.23882E+00  1.42991E-03  2.70466E-05  5.90269E-06 -1.96474E-05  1.50000E+01
  2.07660E+01  2.03644E+01  1.96722E+01 -3.10709E-02  6.85284E-01  1.20108E-01 -5.62235E-01 -2.58212E-05 -2.15138E-04 -1.44425E-04  2.77514E-03  2.15715E+00  1.23598E-03  2.65879E-05  5.18088E-06 -2.02424E-05  1.50000E+01
  2.04133E+01  2.03484E+01  1.99831E+01 -1.68644E-01  2.90450E-01  6.36645E-03 -5.24082E-02  2.44621E-05 -1.15266E-05 -1.85179E-06  6.15652E-04  9.50964E-01  6.43048E-04  2.59860E-05 -3.68685E-06 -1.61473E-06  1.50000E+01
  2.05355E+01  2.03496E+01  2.01563E+01 -1.07820E-01  4.22757E-01 -6.19897E-02  4.61972E-02  1.96111E-05 -2.21417E-05  1.97814E-05  1.00025E-03  1.25970E+00 -1.16401E-03  2.42409E-05 -1.30070E-06  1.34999E-05  1.50000E+01
  2.04151E+01  2.03758E+01  2.01712E+01 -1.75831E-01  2.46021E-01 -5.48962E-02 -9.87485E-02  2.74703E-05 -3.46023E-05  2.60285E-05 -5.31014E-04  7.99860E-01 -2.01262E-03  3.27491E-05 -1.87260E-07  1.46843E-05  1.50000E+01
  2.04356E+01  2.03772E+01  2.01854E+01 -1.65873E-01  2.66189E-01 -6.25486E-02 -1.13439E-01  2.28543E-05 -5.05096E-05  3.34699E-05  1.64786E-05  8.54421E-01 -2.60845E-03  3.14712E-05  4.81016E-07  1.61863E-05  1.50000E+01
  2.01462E+01  2.03954E+01  2.01761E+01 -2.36067E-01 -2.41046E-01  5.50044E-02 -3.08691E-01  7.41418E-05 -1.00374E-04 -3.05906E-06 -5.38647E-02 -7.58945E-01  4.13452E-02  4.75679E-05  1.15511E-05  1.64789E-06  1.50000E+01
  2.01253E+01  2.03907E+01  2.01641E+01 -2.22947E-01 -3.08183E-01  5.31939E-02 -2.35859E-01  8.15280E-05 -1.06636E-04 -1.10848E-05 -4.67810E-02 -9.84488E-01  3.63051E-02  4.70590E-05  1.39637E-05  4.56220E-07  1.50000E+01
  2.08436E+01  2.03850E+01  1.96168E+01 -3.12459E-02  7.90394E-01  1.46962E-01 -6.08535E-01 -9.61996E-08 -2.44271E-04 -1.93168E-04  4.33302E-03  2.49656E+00  2.90986E-03  2.91186E-05  8.36296E-06 -1.67016E-05  1.50000E+01
  2.03513E+01  2.03568E+01  2.00242E+01 -2.01317E-01  2.03722E-01 -5.14806E-03 -1.07934E-01  2.63667E-05 -4.30492E-05  3.88486E-06 -1.70837E-03  6.62625E-01 -6.43178E-06  3.13735E-05 -3.39751E-06  2.05794E-06  1.50000E+01
  2.03515E+01  2.03587E+01  2.00506E+01 -2.02140E-01  2.01376E-01 -1.14851E-02 -1.07051E-01  2.94550E-05 -3.12263E-05  7.53986E-06 -2.01706E-03  6.58107E-01  1.05947E-04  3.29298E-05 -3.17831E-06  4.76798E-06  1.50000E+01
  2.05547E+01  2.03313E+01  2.00945E+01 -9.09609E-02  4.71202E-01 -3.97688E-02  2.22887E-01  3.18571E-05  4.79388E-05 -6.46500E-07  8.33051E-05  1.38464E+00 -9.54550E-04  2.08192E-05 -3.09025E-06  8.02685E-06  1.50000E+01
  2.05545E+01  2.03275E+01  2.00690E+01 -8.91589E-02  4.76026E-01 -2.94057E-02  9.92175E-02  2.74763E-05  3.14314E-05  1.91010E-06  2.03905E-04  1.40505E+00 -5.36923E-04  2.00611E-05 -3.46737E-06  6.43714E-06  1.50000E+01
  2.03737E+01  2.03806E+01  2.01685E+01 -1.96612E-01  1.94585E-01 -4.56260E-02 -1.20184E-01  3.27960E-05 -1.89776E-05  1.94561E-05 -2.40586E-03  6.26562E-01  9.14697E-04  3.55504E-05 -4.22930E-07  1.32294E-05  1.50000E+01
  2.03531E+01  2.03867E+01  2.01800E+01 -2.05885E-01  1.70976E-01 -4.50083E-02 -1.40981E-01  3.38458E-05 -2.08909E-05  1.95170E-05 -3.14406E-03  5.42174E-01  2.24159E-03  3.66474E-05 -4.43513E-07  1.23337E-05  1.50000E+01
  2.03739E+01  2.03887E+01  2.01937E+01 -1.96794E-01  1.83367E-01 -5.29144E-02 -1.46684E-01  3.04475E-05 -3.17934E-05  2.58684E-05 -2.46274E-03  5.85132E-01  8.96166E-04  3.49870E-05  5.03234E-07  1.44404E-05  1.50000E+01
  2.07468E+01  2.03611E+01  1.96867E+01 -3.40484E-02  6.60878E-01  1.14351E-01 -5.38861E-01 -2.56673E-05 -1.99292E-04 -1.30075E-04  2.39325E-03  2.07932E+00  1.17119E-03  2.61103E-05  4.54558E-06 -2.06589E-05  1.50000E+01
  2.03930E+01  2.03516E+01  2.00238E+01 -1.80233E-01  2.61955E-01 -6.68096E-03  1.16609E-02  2.82687E-05  1.05536E-06  1.87170E-06 -2.01637E-04  8.77050E-01 -2.21503E-04  2.80076E-05 -3.66537E-06  2.03765E-06  1.50000E+01
  2.03927E+01  2.03510E+01  1.99970E+01 -1.79843E-01  2.62516E-01  1.63688E-03  2.84645E-02  2.72729E-05 -1.41449E-06 -4.05905E-07  8.41321E-05  8.65758E-01  2.78216E-04  2.73650E-05 -3.68008E-06 -3.36412E-07  1.50000E+01
  2.05543E+01  2.03249E+01  2.00432E+01 -8.76557E-02  4.79016E-01 -1.88218E-02  1.08902E-01  2.37043E-05  1.55919E-05  3.25524E-06  4.70470E-04  1.42835E+00 -2.45849E-04  1.96506E-05 -3.80789E-06  4.66574E-06  1.50000E+01
  2.08241E+01  2.03786E+01  1.96301E+01 -2.88598E-02  7.63499E-01  1.40023E-01 -6.41078E-01 -1.01805E-05 -2.43341E-04 -1.83370E-04  4.09493E-03  2.40943E+00  2.31544E-03  2.86883E-05  7.45063E-06 -1.78399E-05  1.50000E+01
  2.08047E+01  2.03730E+01  1.96438E+01 -2.82106E-02  7.36791E-01  1.33068E-01 -6.44766E-01 -1.77085E-05 -2.35180E-04 -1.69672E-04  3.70133E-03  2.32344E+00  1.80459E-03  2.75778E-05  6.57844E-06 -1.86370E-05  1.50000E+01
  2.03732E+01  2.03669E+01  2.01170E+01 -1.94984E-01  2.13747E-01 -3.14172E-02 -5.25739E-02  3.88005E-05  3.02099E-05  2.70674E-06 -2.08317E-03  7.06972E-01 -1.46857E-04  3.49488E-05 -2.12323E-06  1.00962E-05  1.50000E+01
  2.03522E+01  2.03665E+01  2.01032E+01 -2.04286E-01  1.91845E-01 -2.41774E-02 -9.88036E-02  3.69869E-05  1.57503E-05  4.67803E-06 -2.62484E-03  6.23820E-01  1.03869E-03  3.51307E-05 -2.34203E-06  8.36819E-06  1.50000E+01
  2.05928E+01  2.03148E+01  1.99899E+01 -6.17801E-02  5.35952E-01  3.54936E-03  2.79607E-01  3.65742E-05  7.25391E-05  9.03588E-07  1.12384E-03  1.63132E+00  3.38740E-05  1.92174E-05 -4.32456E-06 -1.09697E-06  1.50000E+01
  2.05733E+01  2.03196E+01  1.99772E+01 -7.41872E-02  5.07412E-01  8.86002E-03  1.56754E-01  3.17436E-05  4.95554E-05 -4.88665E-07  1.08860E-03  1.54829E+00 -8.13369E-06  1.98426E-05 -4.22979E-06 -2.90233E-06  1.50000E+01
  2.05734E+01  2.03191E+01  2.00036E+01 -7.41614E-02  5.08481E-01 -2.36521E-03  1.75848E-01  3.03049E-05  4.47431E-05  7.66773E-08  9.77369E-04  1.54022E+00 -1.25203E-04  1.95847E-05 -4.29076E-06  4.25267E-07  1.50000E+01
  2.08243E+01  2.03953E+01  1.96055E+01 -4.84523E-02  7.45386E-01  1.41792E-01 -6.46179E-01 -9.88768E-06 -2.73407E-04 -2.17079E-04  4.36981E-03  2.35394E+00  2.68326E-03  2.88069E-05  8.61908E-06 -1.77174E-05  1.50000E+01
  2.05550E+01  2.03495E+01  2.01702E+01 -9.82383E-02  4.45110E-01 -6.79748E-02  1.08213E-01  1.57123E-05 -3.77510E-05  2.64218E-05  1.18313E-03  1.33924E+00 -1.56544E-03  2.41000E-05 -7.02650E-07  1.50745E-05  1.50000E+01
  2.05549E+01  2.03423E+01  2.01450E+01 -9.53121E-02  4.55774E-01 -5.91639E-02  9.44308E-02  1.92246E-05 -2.08752E-05  1.89026E-05  6.25544E-04  1.35752E+00 -1.60927E-03  2.36917E-05 -1.59123E-06  1.36355E-05  1.50000E+01
  2.03518E+01  2.03620E+01  2.00770E+01 -2.03198E-01  1.97292E-01 -1.78148E-02 -1.14500E-01  3.27607E-05 -1.48658E-05  8.90178E-06 -2.35679E-03  6.44847E-01  4.50210E-04  3.43395E-05 -2.79023E-06  7.17332E-06  1.50000E+01
  2.03946E+01  2.03909E+01  2.02075E+01 -1.87362E-01  1.98312E-01 -6.09495E-02 -1.58174E-01  2.54283E-05 -5.41611E-05  3.57833E-05 -1.57270E-03  6.35284E-01 -7.53673E-04  3.33736E-05  1.08125E-06  1.54356E-05  1.50000E+01
  2.04151E+01  2.03932E+01  2.02213E+01 -1.78099E-01  2.14593E-01 -6.85587E-02 -2.08484E-01  2.06441E-05 -7.05274E-05  4.42059E-05 -7.25901E-04  6.87539E-01 -2.17498E-03  3.16239E-05  1.72248E-06  1.63589E-05  1.50000E+01
  2.04151E+01  2.03841E+01  2.01964E+01 -1.77040E-01  2.31374E-01 -6.20573E-02 -1.77923E-01  2.35315E-05 -5.79653E-05  3.81858E-05 -6.70743E-04  7.44854E-01 -2.00204E-03  3.26459E-05  1.24562E-06  1.72010E-05  1.50000E+01
  2.01048E+01  2.03855E+01  2.01520E+01 -2.04264E-01 -3.79470E-01  4.69520E-02 -3.32098E-01  9.87347E-05 -1.19763E-04 -2.02477E-05 -3.56480E-02 -1.21173E+00  2.73768E-02  4.98347E-05  1.78915E-05  9.81860E-07  1.50000E+01
  2.00871E+01  2.03748E+01  2.01645E+01 -1.37892E-01 -5.15235E-01  3.01834E-02 -4.05409E-01  1.65521E-04 -1.84214E-04 -6.74400E-05 -8.65486E-04 -1.64236E+00  7.30412E-03  5.18850E-05  2.83918E-05 -1.29038E-06  1.50000E+01