 TITLE="3D TRIANGULAR SURFACE DATA"
VARIABLES="X","Y","Z","U","V","W","P", "Fex", "Fey", "Fez","Finx","Finy","Finz","WSSx","WSSy","WSSz","AMForce"
 ZONE T="unstruc"N=        1757 E=        3355 F=FEPOINT  ET=TRIANGLE
  2.04431E+01  2.02283E+01  2.00983E+01  2.48368E-01  8.64051E-01 -1.03580E-02 -4.92399E-01 -6.68799E-05 -1.65013E-04  4.20757E-05  4.81380E-03  3.57639E+00 -1.15183E-03  1.50321E-05 -6.24425E-06  6.30641E-06  1.50000E+01
  2.04627E+01  2.02182E+01  2.00986E+01  2.59778E-01  8.93800E-01 -9.57139E-03 -4.72305E-01 -3.54704E-05 -8.36274E-05  2.08413E-05  3.18395E-03  1.73563E+00  8.57078E-04  7.17751E-06 -3.15480E-06  2.79851E-06  1.50000E+01
  2.04577E+01  2.02166E+01  2.00773E+01  2.62408E-01  8.88883E-01 -7.61984E-03 -4.77204E-01 -4.96841E-05 -1.17422E-04  2.31425E-05  1.14322E-03  2.54980E+00  9.36693E-04  9.61390E-06 -4.40078E-06  3.55705E-06  1.50000E+01
  2.04413E+01  2.02374E+01  2.01295E+01  2.35719E-01  8.56503E-01 -1.32716E-02 -4.82391E-01 -6.31613E-05 -1.54546E-04  5.16184E-05  2.16432E-03  2.98952E+00 -6.40676E-04  1.42412E-05 -5.10359E-06  7.40384E-06  1.50000E+01
  2.04597E+01  2.02250E+01  2.01197E+01  2.50550E-01  8.86456E-01 -1.19670E-02 -4.95536E-01 -5.74628E-05 -1.33543E-04  4.07951E-05  2.06309E-03  2.52539E+00 -1.22338E-03  1.11557E-05 -4.44800E-06  5.23225E-06  1.50000E+01
  2.04765E+01  2.02137E+01  2.01109E+01  2.63897E-01  9.13020E-01 -1.04543E-02 -4.76836E-01 -5.58167E-05 -1.24199E-04  3.43521E-05  2.26995E-03  2.23818E+00  1.81900E-04  9.20093E-06 -3.99043E-06  3.78261E-06  1.50000E+01
  2.04754E+01  2.02089E+01  2.00868E+01  2.70508E-01  9.14246E-01 -8.33571E-03 -4.77295E-01 -5.00711E-05 -1.12857E-04  2.39572E-05  2.62544E-03  2.25534E+00 -5.78593E-04  8.51524E-06 -3.99221E-06  2.88819E-06  1.50000E+01
  2.04548E+01  2.02141E+01  2.00501E+01  2.66192E-01  8.86518E-01 -5.16333E-03 -4.63642E-01 -4.56909E-05 -1.10610E-04  1.48849E-05  2.37020E-03  2.76955E+00 -2.01409E-04  9.29061E-06 -4.48079E-06  2.51996E-06  1.50000E+01
  2.04382E+01  2.02248E+01  2.00666E+01  2.53873E-01  8.60129E-01 -7.35377E-03 -4.84164E-01 -5.47396E-05 -1.34978E-04  2.40260E-05  3.09995E-03  3.02989E+00 -1.06848E-03  1.11533E-05 -5.00830E-06  3.86926E-06  1.50000E+01
  2.04360E+01  2.02224E+01  2.00376E+01  2.57485E-01  8.58633E-01 -4.29782E-03 -4.61937E-01 -3.87279E-05 -1.00327E-04  1.08557E-05  2.84509E-03  2.84310E+00 -4.43522E-04  9.47925E-06 -4.56128E-06  1.99143E-06  1.50000E+01
  2.04594E+01  2.02331E+01  2.01460E+01  2.39171E-01  8.81610E-01 -1.42113E-02 -5.12293E-01 -6.96326E-05 -1.59592E-04  5.88192E-05  1.75897E-03  2.70400E+00 -1.00099E-03  1.29489E-05 -4.54799E-06  6.89187E-06  1.50000E+01
  2.04766E+01  2.02206E+01  2.01354E+01  2.54343E-01  9.09724E-01 -1.27528E-02 -4.93410E-01 -7.24994E-05 -1.59052E-04  5.33568E-05  1.59734E-03  2.57159E+00 -6.46945E-04  1.16726E-05 -4.63893E-06  5.43025E-06  1.50000E+01
  2.04019E+01  2.02486E+01  2.00973E+01  2.25526E-01  8.00050E-01 -1.12658E-02 -4.61324E-01 -4.71592E-05 -1.28801E-04  3.38053E-05  3.01712E-03  2.83871E+00 -5.57414E-04  1.29682E-05 -4.98571E-06  5.58373E-06  1.50000E+01
  2.04004E+01  2.02436E+01  2.00682E+01  2.32870E-01  8.01567E-01 -8.22783E-03 -4.50143E-01 -4.64637E-05 -1.24174E-04  2.31510E-05  3.32266E-03  2.80228E+00 -3.67775E-04  1.11693E-05 -4.69944E-06  4.00536E-06  1.50000E+01
  2.03822E+01  2.02548E+01  2.00824E+01  2.19546E-01  7.71312E-01 -1.01729E-02 -4.02615E-01 -4.48402E-05 -1.24750E-04  2.79359E-05  3.28349E-03  2.63763E+00 -5.01824E-04  1.19060E-05 -4.66192E-06  4.71243E-06  1.50000E+01
  2.04220E+01  2.02424E+01  2.01127E+01  2.31338E-01  8.29249E-01 -1.22600E-02 -4.85984E-01 -5.57331E-05 -1.45508E-04  4.32652E-05  3.22846E-03  3.12307E+00 -6.35648E-04  1.45883E-05 -5.44774E-06  6.92624E-06  1.50000E+01
  2.04032E+01  2.02554E+01  2.01259E+01  2.15470E-01  7.97099E-01 -1.39679E-02 -4.58790E-01 -5.36723E-05 -1.43336E-04  4.87249E-05  2.73788E-03  2.75498E+00 -6.84844E-04  1.43028E-05 -4.66977E-06  7.78976E-06  1.50000E+01
  2.04228E+01  2.02505E+01  2.01415E+01  2.19608E-01  8.24935E-01 -1.47515E-02 -4.98779E-01 -6.40682E-05 -1.59680E-04  5.95857E-05  2.39763E-03  2.81107E+00 -5.91995E-04  1.46723E-05 -4.57678E-06  8.54778E-06  1.50000E+01
  2.04205E+01  2.02364E+01  2.00829E+01  2.40146E-01  8.31179E-01 -9.35311E-03 -4.53531E-01 -5.27179E-05 -1.37230E-04  3.03855E-05  3.35955E-03  3.14290E+00 -3.97813E-04  1.28024E-05 -5.35116E-06  5.03581E-06  1.50000E+01
  2.04184E+01  2.02327E+01  2.00532E+01  2.45573E-01  8.30800E-01 -6.28586E-03 -4.45886E-01 -4.49990E-05 -1.16623E-04  1.72001E-05  3.02469E-03  2.87994E+00 -4.35377E-04  1.02923E-05 -4.65330E-06  2.92641E-06  1.50000E+01
  2.04922E+01  2.02025E+01  2.00991E+01  2.76970E-01  9.37789E-01 -9.09813E-03 -4.75136E-01 -6.71376E-05 -1.45187E-04  3.48600E-05  2.04952E-03  2.53579E+00 -3.62297E-04  9.92572E-06 -4.61876E-06  3.49602E-06  1.50000E+01
  2.04908E+01  2.01982E+01  2.00734E+01  2.82784E-01  9.38245E-01 -6.81930E-03 -4.67812E-01 -6.08328E-05 -1.33657E-04  2.39598E-05  2.44004E-03  2.63014E+00 -4.42803E-04  9.38901E-06 -4.59710E-06  2.88952E-06  1.50000E+01
  2.04932E+01  2.02082E+01  2.01244E+01  2.69003E-01  9.36319E-01 -1.12172E-02 -4.91279E-01 -7.60175E-05 -1.62390E-04  4.89546E-05  2.14584E-03  2.60204E+00 -1.18045E-04  1.10033E-05 -4.79410E-06  4.40800E-06  1.50000E+01
  2.04731E+01  2.02060E+01  2.00616E+01  2.74620E-01  9.13041E-01 -5.89655E-03 -4.81566E-01 -5.27576E-05 -1.20059E-04  1.87514E-05  1.43175E-03  2.62061E+00  1.10110E-04  9.00758E-06 -4.40436E-06  2.73232E-06  1.50000E+01
  2.04894E+01  2.01955E+01  2.00469E+01  2.86655E-01  9.37976E-01 -4.26818E-03 -4.35646E-01 -5.01507E-05 -1.14067E-04  1.35933E-05  2.17796E-03  2.77265E+00  5.17056E-06  9.03055E-06 -4.63500E-06  2.04733E-06  1.50000E+01
  2.04172E+01  2.02307E+01  2.00242E+01  2.48620E-01  8.30363E-01 -3.06749E-03 -4.00679E-01 -2.24135E-05 -6.82556E-05  5.56367E-06  3.20473E-03  2.76863E+00 -2.94896E-04  9.08568E-06 -4.34616E-06  1.30077E-06  1.50000E+01
  2.04533E+01  2.02125E+01  2.00220E+01  2.68649E-01  8.85424E-01 -2.32356E-03 -4.20159E-01 -2.78142E-05 -7.54233E-05  5.22812E-06  2.85226E-03  2.81133E+00 -1.60290E-04  8.75803E-06 -4.40888E-06  1.22749E-06  1.50000E+01
  2.04350E+01  2.02213E+01  2.00089E+01  2.59178E-01  8.57862E-01 -1.15986E-03 -4.31923E-01 -2.02138E-05 -6.22231E-05  2.02082E-06  3.15968E-03  2.78650E+00 -1.86990E-04  8.81923E-06 -4.36840E-06  5.42541E-07  1.50000E+01
  2.04047E+01  2.02637E+01  2.01535E+01  2.03190E-01  7.93122E-01 -1.62144E-02 -5.43657E-01 -6.86325E-05 -1.71946E-04  6.98957E-05  2.50630E-03  2.63317E+00 -7.27689E-04  1.49077E-05 -3.97596E-06  9.39154E-06  1.50000E+01
  2.04241E+01  2.02596E+01  2.01687E+01  2.06423E-01  8.20643E-01 -1.67699E-02 -5.49997E-01 -7.72863E-05 -1.83344E-04  7.99475E-05  2.38109E-03  2.66768E+00 -7.62011E-04  1.48194E-05 -3.72261E-06  9.70702E-06  1.50000E+01
  2.07826E+01  2.01295E+01  1.96665E+01  3.55209E-01  1.35048E+00  2.16058E-02 -7.74716E-01 -1.44417E-04 -2.90911E-04 -1.86959E-04  2.11728E-03  4.25029E+00 -4.42537E-04  2.61591E-05 -1.61760E-05  5.55587E-08  1.50000E+01
  2.07637E+01  2.01312E+01  1.96818E+01  3.51504E-01  1.32189E+00  1.89931E-02 -8.13568E-01 -1.54316E-04 -2.95500E-04 -1.82289E-04  1.93261E-03  4.15669E+00 -4.14234E-04  2.50210E-05 -1.56180E-05 -4.74147E-07  1.50000E+01
  2.07785E+01  2.01146E+01  1.96932E+01  3.74191E-01  1.34574E+00  2.00184E-02 -7.59005E-01 -1.45683E-04 -2.92593E-04 -1.69303E-04  2.10171E-03  4.23144E+00 -4.16810E-04  2.52109E-05 -1.62664E-05  1.11172E-06  1.50000E+01
  2.07599E+01  2.01170E+01  1.97087E+01  3.69709E-01  1.31772E+00  1.76160E-02 -7.78769E-01 -1.55771E-04 -2.98099E-04 -1.65090E-04  1.94693E-03  4.14053E+00 -3.79386E-04  2.42323E-05 -1.55641E-05  3.48552E-07  1.50000E+01
  2.07748E+01  2.01009E+01  1.97205E+01  3.91670E-01  1.34137E+00  1.83190E-02 -7.34727E-01 -1.44610E-04 -2.90183E-04 -1.50469E-04  2.09081E-03  4.21424E+00 -3.89617E-04  2.47586E-05 -1.61737E-05  1.61125E-06  1.50000E+01
  2.08407E+01  2.01290E+01  1.96218E+01  3.63294E-01  1.44104E+00  3.35218E-02 -4.97857E-01 -4.50257E-05 -1.67371E-04 -1.15339E-04  2.92947E-03  4.54592E+00  1.14472E-04  3.32237E-05 -1.93392E-05  2.50375E-06  1.50000E+01
  2.08211E+01  2.01283E+01  1.96364E+01  3.61333E-01  1.41016E+00  2.89094E-02 -6.48849E-01 -9.86847E-05 -2.45220E-04 -1.69413E-04  2.69151E-03  4.44540E+00 -1.53022E-04  2.97931E-05 -1.80892E-05  1.91366E-06  1.50000E+01
  2.08358E+01  2.01120E+01  1.96476E+01  3.85108E-01  1.43451E+00  3.10881E-02 -4.33826E-01 -4.77048E-05 -1.69519E-04 -1.04727E-04  2.87129E-03  4.52345E+00  1.07989E-05  3.27760E-05 -1.99798E-05  3.34875E-06  1.50000E+01
  2.04944E+01  2.02155E+01  2.01499E+01  2.58908E-01  9.34386E-01 -1.33045E-02 -5.04916E-01 -8.27708E-05 -1.75840E-04  6.36929E-05  2.12723E-03  2.72380E+00 -5.39962E-04  1.24802E-05 -4.95520E-06  5.73191E-06  1.50000E+01
  2.08313E+01  2.00960E+01  1.96740E+01  4.05348E-01  1.42834E+00  2.85101E-02 -4.55151E-01 -6.58932E-05 -1.92733E-04 -1.10925E-04  2.84707E-03  4.50226E+00 -5.29810E-05  2.93941E-05 -1.86023E-05  3.86046E-06  1.50000E+01
  2.08506E+01  2.00960E+01  1.96590E+01  4.08537E-01  1.45854E+00  3.30144E-02 -1.64225E-01 -8.09428E-06 -9.87181E-05 -4.91026E-05  3.01283E-03  4.60093E+00  1.20163E-04  3.15651E-05 -1.97885E-05  5.11475E-06  1.50000E+01
  2.05063E+01  2.01851E+01  2.00325E+01  2.98378E-01  9.63105E-01 -2.71764E-03 -4.50175E-01 -6.14437E-05 -1.32543E-04  1.03469E-05  2.61374E-03  2.88053E+00  2.95283E-05  8.78029E-06 -4.67989E-06  1.35703E-06  1.50000E+01
  2.04886E+01  2.01940E+01  2.00196E+01  2.88949E-01  9.37662E-01 -1.62584E-03 -4.14178E-01 -4.06658E-05 -9.61451E-05  4.99717E-06  2.68293E-03  2.84688E+00  9.76372E-05  8.62116E-06 -4.56368E-06  9.63998E-07  1.50000E+01
  2.04418E+01  2.02462E+01  2.01572E+01  2.23160E-01  8.51716E-01 -1.54932E-02 -5.54709E-01 -7.33508E-05 -1.72216E-04  6.92552E-05  2.08151E-03  2.75289E+00 -7.21013E-04  1.42450E-05 -4.34490E-06  8.39580E-06  1.50000E+01
  2.04434E+01  2.02557E+01  2.01836E+01  2.09456E-01  8.47769E-01 -1.72315E-02 -5.62383E-01 -8.10600E-05 -1.85265E-04  8.67450E-05  2.54565E-03  2.68343E+00 -8.74401E-04  1.47469E-05 -3.58645E-06  9.73614E-06  1.50000E+01
  2.04606E+01  2.02420E+01  2.01723E+01  2.26558E-01  8.77982E-01 -1.60726E-02 -5.58664E-01 -7.79517E-05 -1.75409E-04  7.57837E-05  2.30757E-03  2.71683E+00 -8.94436E-04  1.40289E-05 -4.17319E-06  8.37810E-06  1.50000E+01
  2.04166E+01  2.02303E+01  1.99956E+01  2.49331E-01  8.29774E-01  2.38806E-04 -3.86807E-01 -1.25166E-05 -4.70883E-05 -7.33313E-07  3.28451E-03  2.70713E+00 -1.14250E-04  8.63244E-06 -4.19094E-06 -1.76359E-07  1.50000E+01
  2.04528E+01  2.02123E+01  1.99938E+01  2.69174E-01  8.84682E-01  6.62396E-04 -4.09845E-01 -2.19355E-05 -6.36480E-05 -1.31490E-06  3.18972E-03  2.80486E+00 -1.09291E-05  8.51662E-06 -4.32458E-06 -3.47099E-07  1.50000E+01
  2.04347E+01  2.02218E+01  1.99806E+01  2.58654E-01  8.57036E-01  2.01419E-03 -4.42898E-01 -2.54309E-05 -7.22696E-05 -4.22047E-06  3.26450E-03  2.74748E+00  8.64560E-07  8.68464E-06 -4.28379E-06 -9.07090E-07  1.50000E+01
  2.07866E+01  2.00732E+01  1.97609E+01  4.28620E-01  1.36089E+00  1.69774E-02 -6.99460E-01 -1.23909E-04 -2.66193E-04 -1.13067E-04  2.24383E-03  4.27238E+00 -3.30507E-04  2.61725E-05 -1.68287E-05  2.48894E-06  1.50000E+01
  2.08049E+01  2.00701E+01  1.97449E+01  4.35036E-01  1.38874E+00  1.97929E-02 -6.87854E-01 -9.22554E-05 -2.24767E-04 -9.90199E-05  2.47307E-03  4.36678E+00 -2.78720E-04  2.86839E-05 -1.82701E-05  3.27307E-06  1.50000E+01
  2.07898E+01  2.00853E+01  1.97326E+01  4.13461E-01  1.36504E+00  1.90692E-02 -7.28671E-01 -1.21443E-04 -2.63090E-04 -1.26591E-04  2.26426E-03  4.28920E+00 -3.54210E-04  2.66664E-05 -1.72853E-05  2.50566E-06  1.50000E+01
  2.05096E+01  2.01960E+01  2.01123E+01  2.83353E-01  9.62192E-01 -9.80316E-03 -4.88632E-01 -8.08069E-05 -1.69838E-04  4.51330E-05  2.38313E-03  2.75829E+00 -3.01357E-04  1.11701E-05 -5.19423E-06  3.91174E-06  1.50000E+01
  2.01407E+01  2.03846E+01  2.01902E+01  3.38889E-02  2.90822E-01 -1.39524E-02 -5.10827E-01 -3.18414E-05 -2.24586E-04  1.09292E-04  3.62957E-03  9.25937E-01 -5.80160E-03  3.29954E-05 -5.84087E-06  8.19030E-06  1.50000E+01
  2.01217E+01  2.03950E+01  2.02012E+01  1.28319E-02  2.32905E-01 -8.24022E-03 -6.45441E-01 -1.89640E-05 -2.62068E-04  1.25952E-04  2.18997E-03  7.44077E-01 -5.62279E-03  4.89053E-05 -9.30859E-06  7.31598E-06  1.50000E+01
  2.01424E+01  2.03956E+01  2.02141E+01  1.15546E-02  2.65330E-01 -8.20706E-03 -7.03222E-01 -3.92321E-05 -3.06555E-04  1.57787E-04  2.44915E-03  8.46499E-01 -5.20643E-03  4.65412E-05 -9.11040E-06  7.92938E-06  1.50000E+01
  2.08421E+01  2.00661E+01  1.97133E+01  4.46259E-01  1.44628E+00  2.69394E-02 -5.99932E-01 -3.14984E-06 -9.04329E-05 -3.44129E-05  2.98756E-03  4.55926E+00 -4.97430E-05  3.57753E-05 -2.26075E-05  6.47053E-06  1.50000E+01
  2.08612E+01  2.00654E+01  1.96978E+01  4.50687E-01  1.47568E+00  3.11685E-02 -1.58733E-01 -5.60491E-06 -6.13580E-05 -2.59673E-05  2.86125E-02  2.38009E+00  5.44587E-03  1.90914E-05 -1.20344E-05  3.86997E-06  1.50000E+01
  2.08462E+01  2.00805E+01  1.96858E+01  4.28234E-01  1.45219E+00  3.00061E-02 -4.30033E-01 -3.51553E-05 -1.50587E-04 -7.51860E-05  3.03177E-03  4.57956E+00  5.73559E-05  3.21300E-05 -2.05537E-05  5.95392E-06  1.50000E+01
  2.07934E+01  2.00985E+01  1.97049E+01  3.96700E-01  1.36961E+00  2.11063E-02 -7.08345E-01 -1.26108E-04 -2.72490E-04 -1.47418E-04  2.28463E-03  4.30693E+00 -3.65436E-04  2.66579E-05 -1.73502E-05  2.39543E-06  1.50000E+01
  2.08084E+01  2.00829E+01  1.97169E+01  4.18989E-01  1.39347E+00  2.21760E-02 -7.23799E-01 -9.52321E-05 -2.30485E-04 -1.15201E-04  2.51290E-03  4.38443E+00 -2.71407E-04  2.85632E-05 -1.83585E-05  3.31011E-06  1.50000E+01
  2.04165E+01  2.02315E+01  1.99674E+01  2.47667E-01  8.28779E-01  3.54393E-03 -4.17958E-01 -2.68722E-05 -7.70931E-05 -7.44030E-06  3.19091E-03  2.66685E+00  7.90911E-05  8.94881E-06 -4.22270E-06 -1.60937E-06  1.50000E+01
  2.03992E+01  2.02406E+01  2.00392E+01  2.37451E-01  8.02023E-01 -4.99672E-03 -4.23980E-01 -3.37382E-05 -9.48512E-05  1.09964E-05  3.31498E-03  2.71748E+00 -3.27675E-04  9.71572E-06 -4.43642E-06  2.06202E-06  1.50000E+01
  2.03984E+01  2.02392E+01  2.00105E+01  2.39503E-01  8.01924E-01 -1.61365E-03 -3.98068E-01 -1.41286E-05 -5.24026E-05  2.09570E-06  3.33849E-03  2.65432E+00 -1.95356E-04  8.96444E-06 -4.23576E-06  5.63598E-07  1.50000E+01
  2.08261E+01  2.01456E+01  1.96110E+01  3.39067E-01  1.41648E+00  3.08811E-02 -6.93418E-01 -1.05593E-04 -2.62243E-04 -1.99998E-04  2.79328E-03  4.46748E+00 -5.86707E-05  2.96694E-05 -1.73708E-05  1.40792E-06  1.50000E+01
  2.07565E+01  2.01039E+01  1.97363E+01  3.86404E-01  1.31390E+00  1.61194E-02 -7.45347E-01 -1.54778E-04 -2.96746E-04 -1.46830E-04  1.94899E-03  4.12353E+00 -3.45671E-04  2.38376E-05 -1.53968E-05  7.26263E-07  1.50000E+01
  2.07715E+01  2.00883E+01  1.97484E+01  4.07592E-01  1.33736E+00  1.65315E-02 -7.34790E-01 -1.41996E-04 -2.85602E-04 -1.31370E-04  2.06151E-03  4.19696E+00 -3.61257E-04  2.44320E-05 -1.58146E-05  1.59859E-06  1.50000E+01
  2.03810E+01  2.02507E+01  2.00538E+01  2.25683E-01  7.72820E-01 -6.94794E-03 -3.94518E-01 -4.14495E-05 -1.13832E-04  1.71453E-05  3.49563E-03  2.61529E+00 -3.54272E-04  1.01955E-05 -4.36162E-06  2.88875E-06  1.50000E+01
  2.03619E+01  2.02580E+01  2.00396E+01  2.18261E-01  7.44244E-01 -5.49359E-03 -3.52219E-01 -3.46109E-05 -1.01164E-04  1.17278E-05  3.60750E-03  2.47110E+00 -3.06951E-04  9.57731E-06 -4.13840E-06  2.03616E-06  1.50000E+01
  2.03628E+01  2.02612E+01  2.00679E+01  2.13343E-01  7.42823E-01 -8.93874E-03 -3.86761E-01 -4.63737E-05 -1.30601E-04  2.44643E-05  3.57133E-03  2.48624E+00 -4.79921E-04  1.11563E-05 -4.44468E-06  3.80782E-06  1.50000E+01
  2.05084E+01  2.01909E+01  2.00861E+01  2.90280E-01  9.62913E-01 -7.63166E-03 -4.54289E-01 -7.50781E-05 -1.58910E-04  3.24214E-05  2.41696E-03  2.76418E+00 -3.03253E-04  1.01763E-05 -5.01537E-06  3.02804E-06  1.50000E+01
  2.05072E+01  2.01873E+01  2.00595E+01  2.95275E-01  9.63168E-01 -5.26651E-03 -4.93398E-01 -6.69406E-05 -1.43376E-04  2.05331E-05  2.63603E-03  2.82220E+00 -2.48729E-04  9.35453E-06 -4.82045E-06  2.26052E-06  1.50000E+01
  2.05233E+01  2.01750E+01  2.00182E+01  3.09656E-01  9.88025E-01 -1.28776E-03 -3.83872E-01 -8.29625E-05 -1.69564E-04  7.08460E-06  2.73517E-03  2.97097E+00  5.00429E-05  8.95238E-06 -4.91538E-06  7.69840E-07  1.50000E+01
  2.05058E+01  2.01843E+01  2.00051E+01  2.99647E-01  9.62883E-01 -1.19612E-04 -4.24960E-01 -6.08610E-05 -1.30932E-04  1.41732E-06  2.81422E-03  2.91722E+00  1.45642E-04  8.42373E-06 -4.57328E-06  1.73370E-07  1.50000E+01
  2.08122E+01  2.00969E+01  1.96894E+01  4.01329E-01  1.39864E+00  2.45123E-02 -6.15321E-01 -1.02236E-04 -2.44678E-04 -1.37897E-04  2.55846E-03  4.40380E+00 -2.47993E-04  2.82843E-05 -1.82840E-05  3.27062E-06  1.50000E+01
  2.08165E+01  2.01120E+01  1.96626E+01  3.82100E-01  1.40421E+00  2.67705E-02 -6.11276E-01 -1.02839E-04 -2.50507E-04 -1.56705E-04  2.62935E-03  4.42471E+00 -2.06358E-04  2.96300E-05 -1.86329E-05  2.63886E-06  1.50000E+01
  2.07451E+01  2.01335E+01  1.96972E+01  3.47602E-01  1.29410E+00  1.70097E-02 -8.11659E-01 -1.60155E-04 -2.96749E-04 -1.75105E-04  1.86175E-03  4.06678E+00 -3.18370E-04  2.37252E-05 -1.47091E-05 -1.10832E-06  1.50000E+01
  2.03851E+01  2.02680E+01  2.01385E+01  1.99653E-01  7.65168E-01 -1.55899E-02 -4.92572E-01 -5.72809E-05 -1.54308E-04  5.76225E-05  2.86564E-03  2.55450E+00 -7.88321E-04  1.47681E-05 -4.33337E-06  8.31223E-06  1.50000E+01
  2.03672E+01  2.02807E+01  2.01508E+01  1.83460E-01  7.32589E-01 -1.71053E-02 -5.06536E-01 -6.29987E-05 -1.70798E-04  6.94196E-05  2.96903E-03  2.41232E+00 -9.84233E-04  1.55944E-05 -4.04370E-06  8.96814E-06  1.50000E+01
  2.03869E+01  2.02768E+01  2.01655E+01  1.86405E-01  7.60708E-01 -1.75816E-02 -5.30865E-01 -7.36042E-05 -1.85944E-04  8.17602E-05  2.75771E-03  2.49544E+00 -9.31692E-04  1.52796E-05 -3.35631E-06  1.02772E-05  1.50000E+01
  2.08271E+01  2.00813E+01  1.97012E+01  4.23983E-01  1.42258E+00  2.58417E-02 -6.14544E-01 -6.34633E-05 -1.87160E-04 -9.58188E-05  2.79644E-03  4.48181E+00 -1.17279E-04  2.98697E-05 -1.90168E-05  4.22174E-06  1.50000E+01
  2.07679E+01  2.01465E+01  1.96554E+01  3.31850E-01  1.32639E+00  2.02289E-02 -8.57338E-01 -1.64967E-04 -3.11874E-04 -2.12852E-04  1.95413E-03  4.17450E+00 -4.33480E-04  2.55885E-05 -1.53725E-05 -1.34023E-06  1.50000E+01
  2.07490E+01  2.01481E+01  1.96706E+01  3.28668E-01  1.29803E+00  1.80830E-02 -8.53359E-01 -1.69500E-04 -3.09854E-04 -2.02548E-04  1.83964E-03  4.08202E+00 -3.41483E-04  2.47068E-05 -1.48741E-05 -1.85539E-06  1.50000E+01
  2.04626E+01  2.02520E+01  2.01982E+01  2.12358E-01  8.74660E-01 -1.75191E-02 -5.67917E-01 -8.44085E-05 -1.87234E-04  9.32318E-05  2.82572E-03  2.72243E+00 -9.55796E-04  1.51079E-05 -3.63365E-06  9.90740E-06  1.50000E+01
  2.04794E+01  2.02379E+01  2.01870E+01  2.29970E-01  9.04189E-01 -1.63934E-02 -5.43595E-01 -8.26714E-05 -1.79907E-04  8.33613E-05  2.68469E-03  2.76087E+00 -8.81388E-04  1.43974E-05 -4.29257E-06  8.47760E-06  1.50000E+01
  2.04455E+01  2.02664E+01  2.02094E+01  1.94079E-01  8.43791E-01 -1.84683E-02 -5.92766E-01 -9.09406E-05 -2.03414E-04  1.08187E-04  2.79362E-03  2.66584E+00 -1.02770E-03  1.58286E-05 -3.10876E-06  1.08880E-05  1.50000E+01
  2.04527E+01  2.02136E+01  1.99658E+01  2.67490E-01  8.83743E-01  3.66336E-03 -4.39760E-01 -3.53221E-05 -9.07158E-05 -8.66146E-06  3.26138E-03  2.79015E+00  1.41619E-04  8.91266E-06 -4.40191E-06 -1.72514E-06  1.50000E+01
  2.08017E+01  2.01285E+01  1.96513E+01  3.58557E-01  1.37992E+00  2.49115E-02 -7.19496E-01 -1.29345E-04 -2.80876E-04 -1.87877E-04  2.39014E-03  4.34720E+00 -3.54161E-04  2.79654E-05 -1.73105E-05  1.08228E-06  1.50000E+01
  2.08064E+01  2.01451E+01  1.96255E+01  3.37261E-01  1.38564E+00  2.66142E-02 -7.49561E-01 -1.35336E-04 -2.93781E-04 -2.16896E-04  2.46995E-03  4.36711E+00 -3.13798E-04  2.80995E-05 -1.67556E-05  4.58332E-07  1.50000E+01
  2.07870E+01  2.01454E+01  1.96403E+01  3.34777E-01  1.35559E+00  2.30561E-02 -8.37356E-01 -1.55729E-04 -3.09570E-04 -2.20512E-04  2.17664E-03  4.26996E+00 -4.32460E-04  2.68322E-05 -1.59629E-05 -7.23394E-07  1.50000E+01
  2.07303E+01  2.01503E+01  1.96859E+01  3.25347E-01  1.27041E+00  1.65210E-02 -8.81837E-01 -1.70892E-04 -3.06053E-04 -1.91952E-04  1.83243E-03  3.99313E+00 -2.08762E-04  2.34116E-05 -1.38525E-05 -2.52619E-06  1.50000E+01
  2.05274E+01  2.01896E+01  2.01260E+01  2.89603E-01  9.87114E-01 -1.04192E-02 -5.50671E-01 -9.04695E-05 -1.86076E-04  5.42722E-05  2.70195E-03  2.90641E+00 -3.11610E-04  1.19959E-05 -5.60029E-06  4.19106E-06  1.50000E+01
  2.05110E+01  2.02025E+01  2.01383E+01  2.74460E-01  9.61077E-01 -1.18213E-02 -5.38396E-01 -8.74554E-05 -1.82235E-04  5.96810E-05  2.58903E-03  2.80273E+00 -2.67304E-04  1.21612E-05 -5.25064E-06  5.00658E-06  1.50000E+01
  2.03836E+01  2.02606E+01  2.01108E+01  2.10802E-01  7.68770E-01 -1.30900E-02 -4.51246E-01 -4.67493E-05 -1.31856E-04  3.98798E-05  3.08451E-03  2.61447E+00 -6.39498E-04  1.36891E-05 -4.76114E-06  6.45897E-06  1.50000E+01
  2.03640E+01  2.02661E+01  2.00960E+01  2.05795E-01  7.40408E-01 -1.20936E-02 -4.02362E-01 -5.00925E-05 -1.41347E-04  3.68467E-05  3.36561E-03  2.48075E+00 -6.40486E-04  1.28902E-05 -4.68657E-06  5.32023E-06  1.50000E+01
  2.01232E+01  2.04061E+01  2.02248E+01 -1.05020E-02  2.02006E-01  0.00000E+00 -3.92655E-01 -6.01071E-06 -1.40625E-04  7.00555E-05  8.47657E-01 -9.27044E+00 -1.80533E+01  2.94113E-05 -6.16652E-06  2.66211E-06  1.50000E+01
  2.08703E+01  2.00969E+01  1.96442E+01  4.10744E-01  1.48905E+00  3.79256E-02  5.76945E-02  1.88609E-05 -7.24007E-06  5.93147E-06  2.74279E-02  2.40368E+00  7.09257E-03  1.68534E-05 -1.01947E-05  2.61443E-06  1.50000E+01
  2.08555E+01  2.01127E+01  1.96329E+01  3.87195E-01  1.46527E+00  3.59056E-02 -1.32508E-02  1.95268E-05 -5.60917E-05 -2.02216E-05  3.00372E-03  4.62360E+00  2.04999E-04  3.59439E-05 -2.19189E-05  5.02533E-06  1.50000E+01
  2.07533E+01  2.01638E+01  1.96446E+01  3.08335E-01  1.30228E+00  1.89875E-02 -9.02141E-01 -1.80758E-04 -3.26193E-04 -2.34217E-04  1.84638E-03  4.09897E+00 -3.58092E-04  2.51930E-05 -1.45322E-05 -2.71263E-06  1.50000E+01
  2.07343E+01  2.01654E+01  1.96596E+01  3.05681E-01  1.27409E+00  1.73080E-02 -8.94300E-01 -1.79138E-04 -3.17005E-04 -2.18712E-04  1.79497E-03  4.00745E+00 -2.26080E-04  2.44232E-05 -1.40075E-05 -3.23938E-06  1.50000E+01
  2.03982E+01  2.02395E+01  1.99822E+01  2.39077E-01  8.01270E-01  1.83147E-03 -3.99359E-01 -1.65077E-05 -5.69687E-05 -3.37534E-06  3.25414E-03  2.60673E+00 -4.87918E-06  8.81806E-06 -4.15718E-06 -8.97939E-07  1.50000E+01
  2.05126E+01  2.02103E+01  2.01642E+01  2.63590E-01  9.59755E-01 -1.36916E-02 -5.19547E-01 -9.16994E-05 -1.90044E-04  7.38597E-05  2.52276E-03  2.85378E+00 -4.96782E-04  1.32704E-05 -5.30583E-06  5.94040E-06  1.50000E+01
  2.04065E+01  2.02732E+01  2.01802E+01  1.89125E-01  7.88624E-01 -1.79687E-02 -5.64327E-01 -8.09571E-05 -1.94823E-04  9.17604E-05  2.63002E-03  2.56029E+00 -9.11022E-04  1.53150E-05 -2.99821E-06  1.09629E-05  1.50000E+01
  2.04261E+01  2.02697E+01  2.01949E+01  1.91677E-01  8.16301E-01 -1.82788E-02 -6.02820E-01 -8.52715E-05 -1.97946E-04  9.94719E-05  2.64585E-03  2.61232E+00 -9.66604E-04  1.55758E-05 -2.91628E-06  1.12169E-05  1.50000E+01
  2.01595E+01  2.03738E+01  2.01790E+01  5.39414E-02  3.41935E-01 -1.71902E-02 -3.79229E-01 -2.43528E-05 -1.70965E-04  7.99959E-05  3.80158E-03  1.08633E+00 -4.55405E-03  2.83180E-05 -5.78732E-06  7.08865E-06  1.50000E+01
  2.01391E+01  2.03746E+01  2.01659E+01  5.38937E-02  3.11209E-01 -1.67564E-02 -3.83958E-01 -1.65987E-05 -1.58458E-04  6.81145E-05  4.08975E-03  9.85680E-01 -4.88467E-03  2.96749E-05 -6.59837E-06  5.65414E-06  1.50000E+01
  2.08115E+01  2.01627E+01  1.96003E+01  3.14541E-01  1.39170E+00  2.81294E-02 -7.80794E-01 -1.44753E-04 -3.15971E-04 -2.56165E-04  2.58850E-03  4.38867E+00 -2.39299E-04  2.92889E-05 -1.66314E-05 -1.98667E-07  1.50000E+01
  2.03429E+01  2.02654E+01  2.00257E+01  2.10478E-01  7.15482E-01 -3.86088E-03 -2.96028E-01 -4.13662E-05 -1.18411E-04  8.65076E-06  3.62737E-03  2.34585E+00 -2.18155E-04  9.15246E-06 -3.92550E-06  1.34510E-06  1.50000E+01
  2.03435E+01  2.02677E+01  2.00537E+01  2.06790E-01  7.14275E-01 -7.52972E-03 -3.75968E-01 -4.44439E-05 -1.27348E-04  1.87971E-05  3.66227E-03  2.35637E+00 -4.38239E-04  1.03180E-05 -4.18675E-06  2.67373E-06  1.50000E+01
  2.05260E+01  2.01838E+01  2.00995E+01  2.97485E-01  9.87709E-01 -8.37540E-03 -5.14819E-01 -8.42948E-05 -1.74894E-04  4.04031E-05  2.64849E-03  2.89648E+00 -2.77606E-04  1.10180E-05 -5.42871E-06  3.36999E-06  1.50000E+01
  2.05249E+01  2.01795E+01  2.00727E+01  3.03453E-01  9.88042E-01 -6.15650E-03 -4.89816E-01 -7.60943E-05 -1.59853E-04  2.72374E-05  2.66523E-03  2.91051E+00 -2.11535E-04  1.02679E-05 -5.29642E-06  2.55720E-06  1.50000E+01
  2.03691E+01  2.02901E+01  2.01773E+01  1.69068E-01  7.27303E-01 -1.87650E-02 -5.30409E-01 -7.44410E-05 -1.92554E-04  9.13221E-05  2.77707E-03  2.37344E+00 -1.11366E-03  1.59827E-05 -2.79786E-06  1.12660E-05  1.50000E+01
  2.03514E+01  2.03036E+01  2.01891E+01  1.51136E-01  6.92734E-01 -1.96857E-02 -5.33212E-01 -7.28443E-05 -1.94914E-04  9.90382E-05  2.76736E-03  2.24953E+00 -1.30848E-03  1.68196E-05 -2.35213E-06  1.19578E-05  1.50000E+01
  2.03713E+01  2.03008E+01  2.02033E+01  1.52740E-01  7.21213E-01 -1.97671E-02 -5.83274E-01 -8.31310E-05 -2.09775E-04  1.13083E-04  2.64696E-03  2.33682E+00 -1.25352E-03  1.71432E-05 -2.17270E-06  1.24684E-05  1.50000E+01
  2.07155E+01  2.01675E+01  1.96748E+01  3.02921E-01  1.24653E+00  1.61457E-02 -8.79042E-01 -1.77646E-04 -3.11100E-04 -2.06311E-04  1.83179E-03  3.91908E+00 -7.71741E-05  2.34972E-05 -1.33660E-05 -3.56759E-06  1.50000E+01
  2.03802E+01  2.02484E+01  2.00252E+01  2.29158E-01  7.73439E-01 -3.52060E-03 -3.98388E-01 -2.28760E-05 -7.17197E-05  6.01452E-06  3.49089E-03  2.57471E+00 -2.35529E-04  9.02551E-06 -4.10701E-06  1.32548E-06  1.50000E+01
  2.03798E+01  2.02478E+01  1.99969E+01  2.30042E-01  7.73277E-01  2.64727E-05 -3.84794E-01 -1.16326E-05 -4.67765E-05 -4.29627E-07  3.35983E-03  2.53507E+00 -6.76731E-05  8.59537E-06 -3.98238E-06 -1.61974E-07  1.50000E+01
  2.05239E+01  2.01765E+01  2.00456E+01  3.07517E-01  9.88129E-01 -3.77718E-03 -4.18670E-01 -7.55172E-05 -1.57434E-04  1.66754E-05  2.75536E-03  2.94064E+00 -1.17544E-04  9.52417E-06 -5.09984E-06  1.76523E-06  1.50000E+01
  2.07918E+01  2.01623E+01  1.96148E+01  3.12941E-01  1.36104E+00  2.43362E-02 -8.24753E-01 -1.65942E-04 -3.29751E-04 -2.56946E-04  2.24850E-03  4.28907E+00 -4.06632E-04  2.78859E-05 -1.60150E-05 -1.20979E-06  1.50000E+01
  2.07724E+01  2.01628E+01  1.96296E+01  3.10803E-01  1.33124E+00  2.13006E-02 -8.83305E-01 -1.77718E-04 -3.31869E-04 -2.48296E-04  2.00406E-03  4.19313E+00 -4.30654E-04  2.61541E-05 -1.51096E-05 -2.01423E-06  1.50000E+01
  2.03655E+01  2.02727E+01  2.01237E+01  1.95767E-01  7.36990E-01 -1.48505E-02 -4.07615E-01 -5.02244E-05 -1.44184E-04  4.85608E-05  3.15567E-03  2.45212E+00 -8.08077E-04  1.47506E-05 -4.70451E-06  7.18867E-06  1.50000E+01
  2.03459E+01  2.02775E+01  2.01091E+01  1.91539E-01  7.08686E-01 -1.39666E-02 -3.54130E-01 -5.24374E-05 -1.52119E-04  4.52290E-05  3.34843E-03  2.34175E+00 -8.37751E-04  1.43017E-05 -4.65121E-06  6.55467E-06  1.50000E+01
  2.05574E+01  2.01556E+01  1.99895E+01  3.30936E-01  1.03717E+00  1.18081E-03 -5.17443E-01 -1.00977E-04 -1.99351E-04 -5.06285E-06  2.73124E-03  3.15090E+00  6.33982E-05  9.63392E-06 -5.44523E-06 -4.41160E-07  1.50000E+01
  2.05403E+01  2.01658E+01  1.99760E+01  3.19668E-01  1.01249E+00  2.40673E-03 -4.62390E-01 -9.32923E-05 -1.87406E-04 -1.07479E-05  2.76349E-03  3.08357E+00  1.40938E-04  9.62589E-06 -5.33771E-06 -1.06494E-06  1.50000E+01
  2.05403E+01  2.01652E+01  2.00039E+01  3.20494E-01  1.01270E+00  8.51592E-06 -4.58381E-01 -9.45667E-05 -1.89245E-04  1.45629E-06  2.74203E-03  3.06149E+00  5.41784E-05  9.28339E-06 -5.19507E-06  1.48381E-07  1.50000E+01
  2.07970E+01  2.01802E+01  1.95900E+01  2.89750E-01  1.36682E+00  2.54092E-02 -9.32438E-01 -1.74985E-04 -3.50031E-04 -2.96915E-04  2.35579E-03  4.30976E+00 -3.53944E-04  2.88746E-05 -1.57004E-05 -1.90245E-06  1.50000E+01
  2.05310E+01  2.02053E+01  2.01786E+01  2.68065E-01  9.85342E-01 -1.39499E-02 -5.40930E-01 -1.07094E-04 -2.14600E-04  8.94000E-05  2.60246E-03  2.95763E+00 -4.65610E-04  1.42925E-05 -5.81889E-06  6.09329E-06  1.50000E+01
  2.05291E+01  2.01968E+01  2.01524E+01  2.79786E-01  9.86298E-01 -1.22851E-02 -5.32180E-01 -9.76417E-05 -1.98708E-04  7.03751E-05  2.68826E-03  2.93096E+00 -3.29656E-04  1.30439E-05 -5.68465E-06  5.15617E-06  1.50000E+01
  2.03446E+01  2.02718E+01  2.00815E+01  2.00445E-01  7.12004E-01 -1.09394E-02 -3.35708E-01 -5.04369E-05 -1.44399E-04  3.22723E-05  3.54868E-03  2.35580E+00 -6.48515E-04  1.22247E-05 -4.53406E-06  4.50072E-06  1.50000E+01
  2.03912E+01  2.02982E+01  2.02175E+01  1.54220E-01  7.49673E-01 -1.97708E-02 -6.28371E-01 -9.44127E-05 -2.26089E-04  1.28306E-04  2.59363E-03  2.41798E+00 -1.23623E-03  1.74493E-05 -2.08276E-06  1.27186E-05  1.50000E+01
  2.04111E+01  2.02957E+01  2.02316E+01  1.55584E-01  7.78105E-01 -1.97010E-02 -6.67218E-01 -1.04267E-04 -2.39542E-04  1.42805E-04  2.58557E-03  2.49460E+00 -1.24204E-03  1.79274E-05 -2.09182E-06  1.29529E-05  1.50000E+01
  2.04087E+01  2.02839E+01  2.02062E+01  1.73259E-01  7.83616E-01 -1.91520E-02 -6.00531E-01 -9.07722E-05 -2.13570E-04  1.14317E-04  2.64380E-03  2.52234E+00 -1.09451E-03  1.64219E-05 -2.38933E-06  1.21881E-05  1.50000E+01
  2.01187E+01  2.03756E+01  2.01530E+01  5.34526E-02  2.79691E-01 -1.58977E-02 -3.67166E-01 -1.15571E-05 -1.54789E-04  5.93770E-05  4.40379E-03  8.81349E-01 -5.09996E-03  3.15307E-05 -7.36557E-06  4.45826E-06  1.50000E+01
  2.00997E+01  2.03851E+01  2.01643E+01  3.44814E-02  2.27249E-01 -1.30206E-02 -3.61681E-01 -6.30558E-06 -1.79352E-04  7.10220E-05  3.70553E-03  7.16123E-01 -6.60148E-03  3.84741E-05 -7.86925E-06  5.05073E-06  1.50000E+01