 TITLE="3D TRIANGULAR SURFACE DATA"
VARIABLES="X","Y","Z","U","V","W","P", "Fex", "Fey", "Fez","Finx","Finy","Finz","WSSx","WSSy","WSSz","AMForce"
 ZONE T="unstruc"N=        1757 E=        3355 F=FEPOINT  ET=TRIANGLE
  2.03160E+01  2.03766E+01  2.00960E+01 -4.53446E-01 -5.87378E-01  6.09843E-02  3.08921E-01 -2.23622E-04  6.35523E-04  4.56750E-05 -5.21109E-02 -2.43912E+00  1.97003E-02  6.23160E-05  3.11395E-05 -2.71707E-06  1.50000E+01
  2.03367E+01  2.03851E+01  2.00954E+01 -5.25951E-01 -4.15711E-01  6.87678E-02  5.12978E-01 -9.02278E-05  3.59766E-04  1.24685E-05 -1.68825E-02 -7.83680E-01  6.11162E-03  2.83970E-05  1.03072E-05 -8.00787E-07  1.50000E+01
  2.03318E+01  2.03843E+01  2.00747E+01 -5.31898E-01 -4.08058E-01  5.59868E-02  5.41453E-01 -1.42419E-04  5.74903E-04  1.66644E-05 -4.24066E-02 -1.15146E+00  1.79353E-02  4.32957E-05  1.54663E-05 -2.09069E-07  1.50000E+01
  2.03144E+01  2.03723E+01  2.01271E+01 -3.99231E-01 -6.88368E-01  7.05115E-02  5.74270E-01 -2.38704E-04  5.49470E-04  6.32881E-05 -1.72851E-02 -2.43574E+00  1.61877E-02  5.04177E-05  2.94031E-05 -5.17498E-06  1.50000E+01
  2.03334E+01  2.03827E+01  2.01164E+01 -4.93139E-01 -5.03897E-01  7.83087E-02  4.22783E-01 -1.28743E-04  4.41703E-04  2.59268E-05 -3.79854E-02 -1.43228E+00  7.67451E-03  4.20571E-05  1.81403E-05 -3.39323E-06  1.50000E+01
  2.03518E+01  2.03896E+01  2.01066E+01 -5.58683E-01 -3.27909E-01  7.94139E-02  5.01838E-01 -6.61878E-05  3.74838E-04  6.51205E-06 -3.26182E-02 -7.71385E-01  1.40438E-02  3.60132E-05  1.05432E-05 -1.44047E-06  1.50000E+01
  2.03512E+01  2.03898E+01  2.00833E+01 -5.75564E-01 -2.72841E-01  6.30180E-02  5.29317E-01 -7.67590E-05  4.71367E-04  3.30297E-06 -3.15861E-02 -6.27305E-01  5.21246E-03  3.64271E-05  9.33329E-06 -5.17020E-07  1.50000E+01
  2.03291E+01  2.03840E+01  2.00483E+01 -5.41157E-01 -3.85867E-01  3.67519E-02  4.13468E-01 -1.64524E-04  6.95961E-04  1.15171E-05 -4.51039E-02 -1.17528E+00  8.93039E-03  4.78238E-05  1.62497E-05 -1.15115E-07  1.50000E+01
  2.03112E+01  2.03764E+01  2.00650E+01 -4.65979E-01 -5.61441E-01  4.23154E-02  3.00700E-01 -1.91127E-04  5.80841E-04  2.74318E-05 -3.68871E-02 -1.97838E+00  7.53776E-03  5.53936E-05  2.60042E-05 -9.67990E-07  1.50000E+01
  2.03090E+01  2.03765E+01  2.00366E+01 -4.76131E-01 -5.41370E-01  2.43022E-02  2.49329E-01 -1.92508E-04  6.02038E-04  1.54797E-05 -3.69534E-02 -1.79015E+00  4.79684E-03  5.32795E-05  2.40066E-05 -6.03951E-07  1.50000E+01
  2.03328E+01  2.03800E+01  2.01425E+01 -4.50732E-01 -5.96613E-01  8.89262E-02  3.79103E-01 -1.27556E-04  3.91498E-04  3.38101E-05 -2.89654E-02 -1.84746E+00  1.62799E-02  4.57353E-05  2.29733E-05 -5.54733E-06  1.50000E+01
  2.03513E+01  2.03886E+01  2.01308E+01 -5.32602E-01 -4.09123E-01  9.35399E-02  4.79622E-01 -7.03998E-05  3.50603E-04  1.21602E-05 -4.22315E-02 -1.13653E+00  1.51614E-02  4.25066E-05  1.49466E-05 -3.12083E-06  1.50000E+01
  2.02763E+01  2.03517E+01  2.00965E+01 -2.67137E-01 -8.82926E-01  3.21343E-02  3.07007E-01 -2.87781E-04  4.90675E-04  6.87959E-05  1.47682E-02 -3.17879E+00  1.41341E-03  4.87192E-05  3.78200E-05 -4.37948E-06  1.50000E+01
  2.02742E+01  2.03542E+01  2.00676E+01 -2.91249E-01 -8.51021E-01  2.49055E-02  2.64132E-01 -2.50197E-04  4.65886E-04  4.35821E-05  7.22929E-03 -3.01603E+00  2.27262E-03  5.00886E-05  3.67182E-05 -3.54160E-06  1.50000E+01
  2.02585E+01  2.03396E+01  2.00821E+01 -2.03892E-01 -9.62528E-01  1.84432E-02  2.60907E-01 -2.61416E-04  4.02216E-04  5.67158E-05  2.15905E-02 -3.32972E+00 -1.24954E-03  4.34578E-05  3.79915E-05 -3.99261E-06  1.50000E+01
  2.02953E+01  2.03629E+01  2.01112E+01 -3.36564E-01 -7.86558E-01  5.03799E-02  3.94952E-01 -2.69135E-04  5.46259E-04  7.01761E-05 -1.20821E-03 -3.00988E+00  8.14177E-03  5.40363E-05  3.61761E-05 -4.56997E-06  1.50000E+01
  2.02787E+01  2.03479E+01  2.01251E+01 -2.35437E-01 -9.23984E-01  3.55796E-02  2.77494E-01 -2.46466E-04  4.06608E-04  7.55572E-05  2.12772E-02 -3.24015E+00 -8.15980E-04  4.50318E-05  3.77211E-05 -4.63402E-06  1.50000E+01
  2.02969E+01  2.03587E+01  2.01399E+01 -2.93640E-01 -8.49691E-01  5.39798E-02  5.06245E-01 -2.57868E-04  4.74952E-04  8.17318E-05  9.89098E-03 -2.94364E+00  4.74197E-03  4.70304E-05  3.54882E-05 -5.90090E-06  1.50000E+01
  2.02934E+01  2.03655E+01  2.00816E+01 -3.68900E-01 -7.35986E-01  4.08606E-02  3.87706E-01 -2.47482E-04  5.53738E-04  4.93376E-05 -1.14996E-02 -2.81956E+00  6.94765E-03  5.72754E-05  3.52310E-05 -2.96635E-06  1.50000E+01
  2.02911E+01  2.03666E+01  2.00523E+01 -3.87162E-01 -7.06948E-01  2.74339E-02  5.26122E-01 -2.38175E-04  5.51243E-04  3.05266E-05 -1.68052E-02 -2.47788E+00  4.69718E-03  5.36824E-05  3.14584E-05 -1.72058E-06  1.50000E+01
  2.03699E+01  2.03940E+01  2.00942E+01 -6.03847E-01 -1.66460E-01  7.04412E-02  2.55228E-01 -1.99557E-05  3.35788E-04 -5.20445E-06 -3.19830E-02 -3.88991E-01  7.75495E-03  3.97608E-05  7.65965E-06 -1.25239E-06  1.50000E+01
  2.03692E+01  2.03936E+01  2.00696E+01 -6.14626E-01 -1.21327E-01  5.21547E-02  2.86555E-01 -2.78070E-05  4.42702E-04 -6.65378E-06 -3.03456E-02 -2.70369E-01  3.60390E-03  4.08870E-05  6.82232E-06 -7.83211E-07  1.50000E+01
  2.03702E+01  2.03942E+01  2.01187E+01 -5.88256E-01 -2.30773E-01  8.83556E-02  2.06785E-01 -1.76328E-05  2.79612E-04 -2.94294E-06 -3.64776E-02 -5.87480E-01  1.26456E-02  4.12755E-05  9.55260E-06 -1.87006E-06  1.50000E+01
  2.03492E+01  2.03896E+01  2.00589E+01 -5.86667E-01 -2.42086E-01  4.61270E-02  5.82514E-01 -1.06163E-04  6.63328E-04  2.25291E-06 -4.08174E-02 -6.45537E-01  8.41050E-03  4.25931E-05  1.02615E-05 -2.27557E-07  1.50000E+01
  2.03682E+01  2.03932E+01  2.00443E+01 -6.22065E-01 -9.26239E-02  3.39607E-02  3.33709E-01 -3.67821E-05  5.65350E-04 -6.13831E-06 -3.17843E-02 -1.99450E-01  3.28821E-03  4.30305E-05  6.49300E-06 -4.85591E-07  1.50000E+01
  2.02898E+01  2.03672E+01  2.00238E+01 -3.97169E-01 -6.91060E-01  1.25237E-02  4.62774E-01 -2.54956E-04  5.91015E-04  1.45846E-05 -2.01614E-02 -2.32466E+00  2.16660E-03  5.16444E-05  2.93941E-05 -7.65459E-07  1.50000E+01
  2.03277E+01  2.03840E+01  2.00212E+01 -5.47210E-01 -3.70675E-01  1.63589E-02  3.77846E-01 -1.69753E-04  7.40175E-04  5.30366E-06 -4.66223E-02 -1.13890E+00  3.44343E-03  4.88302E-05  1.60439E-05 -1.23164E-07  1.50000E+01
  2.03080E+01  2.03766E+01  2.00088E+01 -4.80865E-01 -5.32456E-01  5.61266E-03  2.66948E-01 -2.04149E-04  6.34718E-04  4.08481E-06 -3.94211E-02 -1.72096E+00  8.70117E-04  5.26247E-05  2.32844E-05 -1.93959E-07  1.50000E+01
  2.02817E+01  2.03431E+01  2.01528E+01 -2.00216E-01 -9.67866E-01  3.53159E-02  2.71777E-01 -1.93321E-04  3.12275E-04  7.55106E-05  2.48450E-02 -3.25554E+00 -3.29640E-03  4.12969E-05  3.73335E-05 -3.51183E-06  1.50000E+01
  2.02996E+01  2.03540E+01  2.01673E+01 -2.49692E-01 -9.09873E-01  5.30268E-02  3.75990E-01 -1.78033E-04  3.20753E-04  7.18528E-05  1.79026E-02 -3.00476E+00  7.81893E-04  4.29688E-05  3.56774E-05 -4.60926E-06  1.50000E+01
  2.06982E+01  2.04543E+01  1.97106E+01 -6.49775E-01  6.65146E-02 -5.99191E-02  3.95182E-02  4.21293E-05  3.70823E-05  5.93363E-06 -2.48902E-03  2.19181E-01  4.04385E-03  4.55007E-05  6.92965E-06 -4.52216E-06  1.50000E+01
  2.06776E+01  2.04480E+01  1.97225E+01 -6.51825E-01  7.97543E-02 -5.98090E-02  1.27567E-02  4.24243E-05  2.76205E-05  2.67442E-06 -2.39738E-03  2.62072E-01  4.39215E-03  4.44194E-05  6.05225E-06 -4.41782E-06  1.50000E+01
  2.06981E+01  2.04459E+01  1.97352E+01 -6.55893E-01  8.92778E-02 -5.01461E-02 -3.60159E-02  4.63191E-05  8.72619E-06 -5.55012E-06 -1.95861E-03  2.87677E-01  3.19478E-03  4.57468E-05  6.80655E-06 -5.96407E-06  1.50000E+01
  2.06774E+01  2.04399E+01  1.97472E+01 -6.57648E-01  1.01563E-01 -4.99880E-02 -2.65527E-02  4.64133E-05  6.10920E-06 -5.59417E-06 -1.89462E-03  3.27038E-01  3.39337E-03  4.62188E-05  5.94166E-06 -5.50159E-06  1.50000E+01
  2.06980E+01  2.04378E+01  1.97598E+01 -6.61293E-01  1.08854E-01 -4.16358E-02 -3.58290E-02  4.79396E-05 -5.60536E-07 -8.64912E-06 -1.63000E-03  3.47063E-01  2.58296E-03  4.70510E-05  6.37747E-06 -6.27763E-06  1.50000E+01
  2.07599E+01  2.04758E+01  1.96757E+01 -6.39355E-01  1.75382E-02 -6.25041E-02  9.61317E-02  3.93091E-05  6.42720E-05  1.59365E-05 -2.75530E-03  6.20286E-02  3.15294E-03  4.77338E-05  9.46177E-06 -5.27963E-06  1.50000E+01
  2.07394E+01  2.04683E+01  1.96872E+01 -6.43619E-01  3.52332E-02 -6.12876E-02  7.71934E-02  3.74768E-05  6.06293E-05  1.44093E-05 -2.67099E-03  1.18599E-01  3.40068E-03  4.48347E-05  8.44636E-06 -5.20364E-06  1.50000E+01
  2.07599E+01  2.04664E+01  1.97000E+01 -6.46948E-01  4.44369E-02 -5.28770E-02  5.19780E-02  4.24828E-05  4.38250E-05  6.63533E-06 -2.16413E-03  1.45307E-01  2.76938E-03  4.72800E-05  9.29758E-06 -6.51757E-06  1.50000E+01
  2.03705E+01  2.03941E+01  2.01437E+01 -5.65926E-01 -3.12613E-01  1.05035E-01  2.57538E-01 -1.96702E-05  2.52008E-04  6.52113E-07 -4.34870E-02 -8.66654E-01  1.62585E-02  4.44244E-05  1.25648E-05 -2.51893E-06  1.50000E+01
  2.07599E+01  2.04571E+01  1.97243E+01 -6.53624E-01  6.83660E-02 -4.41185E-02  3.95051E-02  4.60742E-05  2.80986E-05 -9.38207E-07 -1.78886E-03  2.19803E-01  2.52393E-03  4.84364E-05  9.34857E-06 -7.87013E-06  1.50000E+01
  2.07805E+01  2.04644E+01  1.97127E+01 -6.49810E-01  5.25787E-02 -4.59126E-02  7.53302E-02  4.41838E-05  4.60464E-05  5.24894E-06 -1.80430E-03  1.70060E-01  2.54180E-03  4.91590E-05  1.03557E-05 -8.59621E-06  1.50000E+01
  2.03882E+01  2.03952E+01  2.00304E+01 -6.41802E-01  2.56280E-02  2.17643E-02  1.80013E-01  1.04407E-05  4.34100E-04 -7.06622E-06 -1.94268E-02  1.56267E-01  3.93374E-04  4.26251E-05  3.44019E-06 -5.88049E-07  1.50000E+01
  2.03676E+01  2.03929E+01  2.00185E+01 -6.25984E-01 -7.70609E-02  1.49562E-02  3.53597E-01 -3.86645E-05  6.24775E-04 -2.99662E-06 -3.16318E-02 -1.54128E-01  1.68147E-03  4.42027E-05  6.28778E-06 -2.17283E-07  1.50000E+01
  2.03153E+01  2.03683E+01  2.01548E+01 -3.50232E-01 -7.70410E-01  7.42227E-02  5.68928E-01 -1.87034E-04  4.04940E-04  6.14503E-05 -3.48577E-03 -2.53347E+00  1.09620E-02  4.62102E-05  3.09717E-05 -6.26850E-06  1.50000E+01
  2.03178E+01  2.03640E+01  2.01814E+01 -3.00832E-01 -8.45347E-01  7.32235E-02  3.87736E-01 -1.19809E-04  2.65429E-04  5.13689E-05  6.33473E-03 -2.72138E+00  6.74324E-03  4.33463E-05  3.28169E-05 -5.90164E-06  1.50000E+01
  2.03340E+01  2.03771E+01  2.01689E+01 -4.03496E-01 -6.86785E-01  9.46261E-02  3.96615E-01 -9.41950E-05  2.86478E-04  3.27816E-05 -1.92376E-02 -2.15432E+00  1.67818E-02  4.57773E-05  2.67497E-05 -6.73344E-06  1.50000E+01
  2.02892E+01  2.03672E+01  1.99957E+01 -3.98937E-01 -6.88957E-01 -3.00588E-03  5.27017E-01 -2.69317E-04  6.17240E-04 -2.15364E-06 -2.12940E-02 -2.26590E+00 -8.40459E-04  5.06439E-05  2.86834E-05  1.51349E-07  1.50000E+01
  2.03272E+01  2.03839E+01  1.99940E+01 -5.47945E-01 -3.69597E-01 -4.31028E-03  3.89580E-01 -1.73072E-04  7.53623E-04 -1.41418E-06 -4.78865E-02 -1.12951E+00 -1.10032E-03  4.88307E-05  1.59862E-05 -4.22061E-11  1.50000E+01
  2.03077E+01  2.03764E+01  1.99812E+01 -4.78075E-01 -5.39167E-01 -1.30686E-02  2.85214E-01 -2.05514E-04  6.30134E-04 -8.03130E-06 -3.94892E-02 -1.71962E+00 -3.22721E-03  5.19575E-05  2.32206E-05  3.01479E-07  1.50000E+01
  2.07184E+01  2.04281E+01  1.97972E+01 -6.68959E-01  1.31085E-01 -2.78745E-02 -7.37891E-02  4.79733E-05 -6.04355E-06 -9.99949E-06 -1.33198E-03  4.14825E-01  1.94813E-03  4.67665E-05  5.79189E-06 -6.46532E-06  1.50000E+01
  2.07391E+01  2.04337E+01  1.97851E+01 -6.67129E-01  1.20502E-01 -2.83234E-02 -2.34658E-03  4.78357E-05  1.13937E-05 -5.96298E-06 -1.35965E-03  3.82339E-01  2.07721E-03  4.81094E-05  6.93210E-06 -7.22541E-06  1.50000E+01
  2.07185E+01  2.04357E+01  1.97724E+01 -6.64413E-01  1.14898E-01 -3.45069E-02 -3.36618E-02  4.78424E-05  2.11260E-06 -8.41006E-06 -1.46371E-03  3.64807E-01  2.19234E-03  4.73014E-05  6.67896E-06 -6.90003E-06  1.50000E+01
  2.03896E+01  2.03974E+01  2.01058E+01 -6.22448E-01 -7.76717E-02  7.51757E-02  2.06970E-01  8.93294E-06  2.66183E-04 -1.12579E-05 -2.66261E-02 -1.48651E-01  5.04974E-03  4.23539E-05  5.81246E-06 -1.52692E-06  1.50000E+01
  2.01045E+01  2.00996E+01  2.01912E+01  8.67364E-03 -1.24747E+00 -6.71909E-04 -3.87802E-01  2.03383E-04 -5.72552E-05 -1.01452E-04  1.38325E-03 -3.91557E+00  1.54889E-04  4.27681E-05  6.03956E-05 -2.02756E-06  1.50000E+01
  2.00953E+01  2.00776E+01  2.02018E+01  4.58081E-03 -1.25186E+00 -2.98882E-04 -9.32202E-01  4.10387E-04 -1.89070E-04 -2.46663E-04  8.00431E-04 -3.92962E+00  4.67926E-04  5.14634E-05  7.43036E-05 -4.10984E-06  1.50000E+01
  2.01125E+01  2.00895E+01  2.02147E+01  4.73024E-03 -1.25105E+00 -3.05034E-04 -8.75008E-01  2.90275E-04 -1.06225E-04 -1.68996E-04  1.18901E-03 -3.93748E+00  4.40801E-04  4.95012E-05  6.99121E-05 -6.12287E-07  1.50000E+01
  2.07804E+01  2.04462E+01  1.97614E+01 -6.62036E-01  9.61411E-02 -3.05002E-02 -2.69406E-03  5.00817E-05  1.88583E-05 -5.41069E-06 -1.40903E-03  3.06927E-01  2.39650E-03  5.08757E-05  9.30876E-06 -8.66295E-06  1.50000E+01
  2.08011E+01  2.04531E+01  1.97498E+01 -6.58706E-01  8.22039E-02 -3.25430E-02  1.18870E-03  2.36340E-05  1.96276E-05  8.48963E-07  1.85723E-04  1.24622E-01  3.98331E-03  2.54943E-05  5.03969E-06 -4.53357E-06  1.50000E+01
  2.07805E+01  2.04551E+01  1.97370E+01 -6.56277E-01  7.55057E-02 -3.78280E-02  2.00535E-02  4.82436E-05  2.51378E-05 -3.32866E-06 -1.56230E-03  2.42031E-01  2.45812E-03  5.02499E-05  1.00458E-05 -9.01903E-06  1.50000E+01
  2.07186E+01  2.04438E+01  1.97478E+01 -6.59309E-01  9.65216E-02 -4.20709E-02 -2.78119E-02  4.69903E-05  8.90724E-06 -6.52299E-06 -1.68046E-03  3.08207E-01  2.52739E-03  4.64090E-05  7.28539E-06 -6.91340E-06  1.50000E+01
  2.07392E+01  2.04417E+01  1.97605E+01 -6.62249E-01  1.02879E-01 -3.51427E-02 -3.06141E-02  4.83247E-05  6.31151E-06 -8.74152E-06 -1.50649E-03  3.27473E-01  2.26526E-03  4.79825E-05  7.90569E-06 -8.04360E-06  1.50000E+01
  2.02892E+01  2.03666E+01  1.99681E+01 -3.91860E-01 -7.01514E-01 -1.80465E-02  5.26460E-01 -2.52173E-04  5.75174E-04 -1.87084E-05 -1.92603E-02 -2.27793E+00 -3.58367E-03  5.00215E-05  2.89155E-05  1.01083E-06  1.50000E+01
  2.02726E+01  2.03556E+01  2.00389E+01 -3.06388E-01 -8.30963E-01  1.49604E-02  2.97571E-01 -2.25827E-04  4.42685E-04  2.26130E-05  2.30227E-03 -2.85212E+00  1.61432E-03  4.83583E-05  3.41280E-05 -2.00966E-06  1.50000E+01
  2.02717E+01  2.03561E+01  2.00105E+01 -3.13006E-01 -8.22516E-01  3.65400E-03  3.21438E-01 -2.41539E-04  4.71374E-04  6.71301E-06 -1.65484E-04 -2.75622E+00  3.88421E-04  4.75185E-05  3.29723E-05 -4.74384E-07  1.50000E+01
  2.07394E+01  2.04775E+01  1.96628E+01 -6.35524E-01  6.03087E-03 -7.22233E-02  1.50349E-01  3.34646E-05  8.81376E-05  2.62408E-05 -3.54454E-03  2.94528E-02  4.10503E-03  4.57205E-05  8.64250E-06 -3.87251E-06  1.50000E+01
  2.06773E+01  2.04322E+01  1.97720E+01 -6.62789E-01  1.20030E-01 -4.14999E-02 -4.27038E-02  4.75414E-05 -3.27459E-06 -8.46063E-06 -1.58890E-03  3.82330E-01  2.66070E-03  4.66798E-05  5.41520E-06 -5.74535E-06  1.50000E+01
  2.06978E+01  2.04301E+01  1.97846E+01 -6.66099E-01  1.25879E-01 -3.41904E-02 -5.72520E-02  4.79620E-05 -1.56328E-05 -1.25543E-05 -1.42970E-03  3.98957E-01  2.15389E-03  4.60579E-05  5.58030E-06 -6.17443E-06  1.50000E+01
  2.02566E+01  2.03419E+01  2.00535E+01 -2.20886E-01 -9.42982E-01  1.32740E-02  1.52711E-01 -2.07948E-04  3.48009E-04  3.00206E-05  1.78478E-02 -3.22825E+00 -1.92768E-04  4.38267E-05  3.67248E-05 -2.94651E-06  1.50000E+01
  2.02400E+01  2.03287E+01  2.00396E+01 -1.60659E-01 -1.01510E+00  5.89008E-03  1.79288E-01 -1.99340E-04  2.99852E-04  2.14589E-05  2.16865E-02 -3.40014E+00 -8.63265E-04  3.88105E-05  3.61527E-05 -2.41507E-06  1.50000E+01
  2.02417E+01  2.03267E+01  2.00678E+01 -1.49847E-01 -1.02608E+00  9.27211E-03  1.58801E-01 -2.06617E-04  3.03062E-04  3.83702E-05  2.28517E-02 -3.46333E+00 -1.93387E-03  3.87852E-05  3.72455E-05 -3.50060E-06  1.50000E+01
  2.03892E+01  2.03965E+01  2.00809E+01 -6.31457E-01 -2.83036E-02  5.67813E-02  1.80891E-01  9.84869E-06  3.15905E-04 -1.19902E-05 -2.25169E-02 -4.69789E-03  2.20264E-03  4.15883E-05  4.56995E-06 -1.28324E-06  1.50000E+01
  2.03887E+01  2.03957E+01  2.00558E+01 -6.37738E-01  5.61649E-03  3.90049E-02  1.76586E-01  9.84394E-06  3.81139E-04 -1.09117E-05 -2.01212E-02  9.53208E-02  3.94809E-04  4.18618E-05  3.83466E-06 -9.73191E-07  1.50000E+01
  2.04084E+01  2.03960E+01  2.00169E+01 -6.52098E-01  1.08618E-01  1.12610E-02  1.39730E-01  3.34133E-05  3.27004E-04 -4.25471E-06 -9.86834E-03  3.96401E-01 -4.08105E-04  4.27067E-05  1.40165E-06 -4.21686E-07  1.50000E+01
  2.03878E+01  2.03949E+01  2.00047E+01 -6.43508E-01  3.27774E-02  4.46642E-03  1.91361E-01  1.05409E-05  4.64519E-04 -1.10233E-06 -1.90013E-02  1.79789E-01  4.53902E-04  4.31858E-05  3.31282E-06 -1.32303E-07  1.50000E+01
  2.07393E+01  2.04503E+01  1.97360E+01 -6.56773E-01  8.30258E-02 -4.28711E-02  2.36698E-02  4.47911E-05  2.28863E-05 -2.12090E-06 -1.73629E-03  2.65865E-01  2.51154E-03  4.63369E-05  8.15747E-06 -7.27979E-06  1.50000E+01
  2.07394E+01  2.04592E+01  1.97115E+01 -6.50615E-01  6.06423E-02 -5.15553E-02  4.69321E-02  4.19496E-05  3.91579E-05  5.29661E-06 -2.10381E-03  1.96709E-01  2.87702E-03  4.58738E-05  8.27690E-06 -6.00247E-06  1.50000E+01
  2.06569E+01  2.04421E+01  1.97346E+01 -6.53303E-01  9.12392E-02 -6.00903E-02 -9.52977E-03  4.49009E-05  1.66902E-05 -7.77254E-07 -2.31853E-03  2.99695E-01  4.75668E-03  4.55985E-05  5.39250E-06 -4.25089E-06  1.50000E+01
  2.02643E+01  2.03315E+01  2.01382E+01 -1.54846E-01 -1.01860E+00  2.12506E-02  1.89254E-01 -1.91864E-04  2.86271E-04  7.10096E-05  2.65118E-02 -3.43414E+00 -4.91665E-03  3.90834E-05  3.81805E-05 -3.01881E-06  1.50000E+01
  2.02513E+01  2.03139E+01  2.01509E+01 -9.54103E-02 -1.08296E+00  9.87306E-03  2.34594E-01 -1.56172E-04  2.21470E-04  6.74958E-05  2.38855E-02 -3.58690E+00 -5.83792E-03  3.56393E-05  3.89231E-05 -2.25365E-06  1.50000E+01
  2.02683E+01  2.03260E+01  2.01653E+01 -1.27504E-01 -1.04928E+00  1.91699E-02  2.65170E-01 -1.60707E-04  2.37663E-04  7.36208E-05  2.66483E-02 -3.47073E+00 -6.42408E-03  3.71754E-05  3.83981E-05 -1.87969E-06  1.50000E+01
  2.07599E+01  2.04482E+01  1.97486E+01 -6.59553E-01  8.97634E-02 -3.62060E-02 -6.12035E-02  5.03500E-05  1.18216E-06 -1.14296E-05 -1.54902E-03  2.86664E-01  2.36888E-03  4.91569E-05  8.97603E-06 -8.46908E-06  1.50000E+01
  2.06777E+01  2.04563E+01  1.96979E+01 -6.45109E-01  5.35112E-02 -7.13044E-02  7.73148E-02  3.97130E-05  5.63047E-05  1.40325E-05 -3.20821E-03  1.84448E-01  5.66995E-03  4.53494E-05  6.31667E-06 -2.98410E-06  1.50000E+01
  2.06571E+01  2.04501E+01  1.97098E+01 -6.46841E-01  6.52649E-02 -7.18170E-02  8.44824E-02  4.08416E-05  4.47002E-05  9.45138E-06 -3.11311E-03  2.23573E-01  6.17562E-03  4.46282E-05  5.64682E-06 -3.31026E-06  1.50000E+01
  2.03363E+01  2.03734E+01  2.01950E+01 -3.51360E-01 -7.75202E-01  9.45837E-02  5.33210E-01 -8.36290E-05  2.35219E-04  3.75410E-05 -7.78573E-03 -2.45112E+00  1.38917E-02  4.48879E-05  3.02432E-05 -6.50520E-06  1.50000E+01
  2.03531E+01  2.03851E+01  2.01821E+01 -4.51892E-01 -5.99871E-01  1.13947E-01  5.73557E-01 -5.38710E-05  2.41823E-04  1.95446E-05 -3.35968E-02 -1.84037E+00  2.25998E-02  4.71147E-05  2.35810E-05 -5.87373E-06  1.50000E+01
  2.03212E+01  2.03589E+01  2.02076E+01 -2.50208E-01 -9.15443E-01  6.76133E-02  5.28477E-01 -1.29910E-04  2.51040E-04  6.56477E-05  1.65603E-02 -2.93884E+00  1.50918E-03  4.09318E-05  3.42841E-05 -3.92992E-06  1.50000E+01
  2.03270E+01  2.03836E+01  1.99671E+01 -5.42065E-01 -3.86096E-01 -2.46334E-02  4.31621E-01 -1.83008E-04  7.63204E-04 -9.24181E-06 -4.75227E-02 -1.17952E+00 -5.14687E-03  4.86661E-05  1.64387E-05  8.91764E-08  1.50000E+01
  2.07188E+01  2.04611E+01  1.96988E+01 -6.47067E-01  5.16222E-02 -6.04190E-02  6.28972E-02  3.92450E-05  5.30500E-05  1.18651E-05 -2.58173E-03  1.71197E-01  3.70230E-03  4.49605E-05  7.58872E-06 -4.60750E-06  1.50000E+01
  2.07189E+01  2.04701E+01  1.96744E+01 -6.39544E-01  2.36663E-02 -7.15805E-02  1.67550E-01  3.19749E-05  9.39930E-05  2.78848E-05 -3.42559E-03  8.66148E-02  4.59375E-03  4.41601E-05  7.70229E-06 -3.56194E-06  1.50000E+01
  2.06983E+01  2.04630E+01  1.96861E+01 -6.42709E-01  3.95768E-02 -7.12451E-02  1.08590E-01  3.64933E-05  7.44260E-05  2.06920E-05 -3.31675E-03  1.38571E-01  5.13073E-03  4.50666E-05  6.96968E-06 -3.01691E-06  1.50000E+01
  2.06364E+01  2.04443E+01  1.97219E+01 -6.48002E-01  7.47001E-02 -7.28006E-02  1.86476E-02  4.37408E-05  2.67570E-05  3.54651E-06 -3.05066E-03  2.55667E-01  6.64794E-03  4.52408E-05  4.98023E-06 -3.13588E-06  1.50000E+01
  2.04099E+01  2.04003E+01  2.01179E+01 -6.33817E-01 -9.58130E-03  7.72658E-02  2.20261E-01  2.62961E-05  2.05852E-04 -1.39507E-05 -1.91791E-02  4.68248E-02  1.11850E-03  4.45475E-05  4.27932E-06 -1.26753E-06  1.50000E+01
  2.03900E+01  2.03983E+01  2.01308E+01 -6.09483E-01 -1.43487E-01  9.38869E-02  2.75665E-01  7.36193E-06  2.32777E-04 -9.21457E-06 -3.26014E-02 -3.47822E-01  8.89242E-03  4.43130E-05  7.76531E-06 -1.66118E-06  1.50000E+01
  2.02611E+01  2.03361E+01  2.01104E+01 -1.81154E-01 -9.88667E-01  2.11408E-02  2.22492E-01 -2.71438E-04  3.94249E-04  7.69156E-05  2.46670E-02 -3.39913E+00 -3.02404E-03  4.11952E-05  3.79759E-05 -3.73557E-06  1.50000E+01
  2.02441E+01  2.03236E+01  2.00959E+01 -1.34318E-01 -1.04213E+00  1.11153E-02  1.83156E-01 -2.32203E-04  3.20528E-04  6.05906E-05  2.40184E-02 -3.51912E+00 -3.32176E-03  3.77896E-05  3.77641E-05 -3.72022E-06  1.50000E+01
  2.01036E+01  2.00669E+01  2.02248E+01 -8.62669E-06 -1.25599E+00  0.00000E+00 -6.55707E-01  2.47036E-04 -1.23071E-04 -1.57058E-04  2.52301E+00  4.04776E+01 -3.67554E+01  2.89741E-05  4.02163E-05 -7.24200E-08  1.50000E+01
  2.08010E+01  2.04719E+01  1.97014E+01 -6.45308E-01  3.57485E-02 -4.83808E-02  3.29893E-02  2.13657E-05  2.60167E-05  3.96997E-06  7.88785E-04  5.06815E-02  4.27136E-03  2.43967E-05  5.34842E-06 -4.23266E-06  1.50000E+01
  2.07804E+01  2.04739E+01  1.96885E+01 -6.42519E-01  2.71347E-02 -5.46775E-02  8.48966E-02  4.25235E-05  5.34128E-05  1.00655E-05 -2.19598E-03  9.04856E-02  2.70960E-03  4.89874E-05  1.02610E-05 -6.96464E-06  1.50000E+01
  2.06572E+01  2.04583E+01  1.96851E+01 -6.39172E-01  3.27950E-02 -8.58214E-02  1.22796E-01  3.73505E-05  7.06318E-05  1.92649E-05 -4.41596E-03  1.28563E-01  7.73004E-03  4.46971E-05  5.97352E-06 -2.12185E-06  1.50000E+01
  2.06366E+01  2.04521E+01  1.96971E+01 -6.40535E-01  4.14198E-02 -8.72789E-02  1.09129E-01  3.82647E-05  5.94354E-05  1.48669E-05 -4.41518E-03  1.58800E-01  8.25043E-03  4.37201E-05  5.30793E-06 -2.24610E-06  1.50000E+01
  2.02715E+01  2.03558E+01  1.99825E+01 -3.10979E-01 -8.26080E-01 -7.86813E-03  3.65797E-01 -2.38827E-04  4.61831E-04 -9.77358E-06  8.95548E-05 -2.72099E+00 -1.00840E-03  4.66351E-05  3.25246E-05  1.07797E-06  1.50000E+01
  2.03905E+01  2.03991E+01  2.01561E+01 -5.90629E-01 -2.25794E-01  1.12322E-01  3.27799E-01  4.46255E-06  2.10758E-04 -6.05117E-06 -3.96224E-02 -6.08781E-01  1.35603E-02  4.65471E-05  1.04065E-05 -1.83029E-06  1.50000E+01
  2.02856E+01  2.03375E+01  2.01797E+01 -1.64740E-01 -1.01025E+00  3.20927E-02  3.29695E-01 -1.58019E-04  2.49848E-04  7.50586E-05  2.68522E-02 -3.31643E+00 -5.67327E-03  3.83994E-05  3.72751E-05 -2.08693E-06  1.50000E+01
  2.03032E+01  2.03485E+01  2.01938E+01 -2.06125E-01 -9.65622E-01  4.84523E-02  4.92235E-01 -1.46320E-04  2.52604E-04  7.25825E-05  2.35958E-02 -3.13341E+00 -3.08702E-03  3.97673E-05  3.62175E-05 -3.39688E-06  1.50000E+01
  2.01138E+01  2.01211E+01  2.01801E+01  1.19521E-02 -1.24262E+00 -1.05691E-03 -1.76021E-01  1.32923E-04 -1.39454E-05 -5.21950E-05  1.74932E-03 -3.91065E+00  8.37947E-05  4.02563E-05  5.36557E-05  1.43914E-06  1.50000E+01
  2.00973E+01  2.01085E+01  2.01671E+01  1.19027E-02 -1.24501E+00 -9.77447E-04 -1.46742E-01  1.41979E-04 -2.11998E-05 -5.44925E-05  1.44425E-03 -3.89372E+00  1.71234E-05  4.08098E-05  5.48794E-05  1.82384E-07  1.50000E+01
  2.07189E+01  2.04791E+01  1.96499E+01 -6.30611E-01 -9.49164E-03 -8.44484E-02  2.06167E-01  2.72862E-05  1.15849E-04  3.76512E-05 -4.70148E-03 -1.30810E-02  5.62924E-03  4.42000E-05  7.74122E-06 -2.00021E-06  1.50000E+01
  2.02243E+01  2.03147E+01  2.00258E+01 -1.12068E-01 -1.07022E+00  1.93613E-03  1.67812E-01 -1.88462E-04  2.63407E-04  1.36259E-05  2.05851E-02 -3.53027E+00 -6.23614E-04  3.58264E-05  3.60796E-05 -1.50690E-06  1.50000E+01
  2.02257E+01  2.03131E+01  2.00537E+01 -1.05933E-01 -1.07576E+00  3.87456E-03  1.55210E-01 -1.87430E-04  2.60572E-04  2.84505E-05  2.06972E-02 -3.56934E+00 -1.57574E-03  3.60439E-05  3.70271E-05 -2.52268E-06  1.50000E+01
  2.04095E+01  2.03988E+01  2.00928E+01 -6.41169E-01  3.95302E-02  5.92894E-02  1.89380E-01  2.81299E-05  2.37733E-04 -1.46419E-05 -1.47838E-02  1.89819E-01 -6.32782E-04  4.35955E-05  3.01364E-06 -1.43306E-06  1.50000E+01
  2.04091E+01  2.03975E+01  2.00676E+01 -6.46368E-01  7.47325E-02  4.24355E-02  1.52554E-01  2.97573E-05  2.72523E-04 -1.33100E-05 -1.19687E-02  2.92487E-01 -1.37018E-03  4.24602E-05  2.13995E-06 -1.26571E-06  1.50000E+01
  2.02561E+01  2.03075E+01  2.01776E+01 -7.53365E-02 -1.10454E+00  7.35604E-03  2.43614E-01 -1.31708E-04  1.89545E-04  6.88123E-05  2.26480E-02 -3.62146E+00 -6.63460E-03  3.43845E-05  3.92178E-05 -1.20814E-06  1.50000E+01
  2.02449E+01  2.02881E+01  2.01896E+01 -4.00182E-02 -1.14243E+00 -1.19419E-04  2.16339E-01 -8.57270E-05  1.39055E-04  5.41672E-05  1.69803E-02 -3.71790E+00 -5.39805E-03  3.27616E-05  3.98470E-05 -2.87134E-07  1.50000E+01
  2.02616E+01  2.03003E+01  2.02037E+01 -5.66014E-02 -1.12539E+00  4.21576E-03  2.60959E-01 -9.89293E-05  1.51982E-04  6.30520E-05  2.06783E-02 -3.65929E+00 -6.97778E-03  3.28335E-05  3.88946E-05  1.36139E-08  1.50000E+01
  2.06159E+01  2.04463E+01  1.97092E+01 -6.41325E-01  4.69925E-02 -8.92947E-02  7.15184E-02  4.17060E-05  4.55334E-05  9.75266E-06 -4.52480E-03  1.79645E-01  8.63098E-03  4.51927E-05  4.95202E-06 -2.40061E-06  1.50000E+01
  2.02553E+01  2.03432E+01  2.00251E+01 -2.30828E-01 -9.31770E-01  6.32814E-03  1.86078E-01 -2.05695E-04  3.50129E-04  1.38249E-05  1.52946E-02 -3.13774E+00  9.12162E-05  4.32276E-05  3.52976E-05 -1.61659E-06  1.50000E+01
  2.02548E+01  2.03434E+01  1.99970E+01 -2.33224E-01 -9.29544E-01 -1.41142E-03  2.01444E-01 -2.10302E-04  3.56245E-04 -1.15259E-06  1.46099E-02 -3.08293E+00  3.73197E-05  4.25003E-05  3.44780E-05  2.96392E-07  1.50000E+01
  2.04087E+01  2.03966E+01  2.00423E+01 -6.49964E-01  9.73872E-02  2.65515E-02  1.43766E-01  3.19150E-05  3.03567E-04 -9.74066E-06 -1.03760E-02  3.60741E-01 -1.29167E-03  4.22649E-05  1.63308E-06 -8.97014E-07  1.50000E+01
  2.06984E+01  2.04718E+01  1.96615E+01 -6.34318E-01  7.08068E-03 -8.45011E-02  2.05008E-01  2.86575E-05  1.11913E-04  3.51627E-05 -4.57847E-03  4.17505E-02  6.36544E-03  4.36809E-05  7.07485E-06 -2.00345E-06  1.50000E+01
  2.06778E+01  2.04648E+01  1.96733E+01 -6.37137E-01  2.12740E-02 -8.49168E-02  1.08264E-01  3.44918E-05  8.22330E-05  2.38578E-05 -4.48429E-03  8.93117E-02  7.09309E-03  4.42282E-05  6.57992E-06 -2.20868E-06  1.50000E+01
  2.02473E+01  2.03193E+01  2.01236E+01 -1.15600E-01 -1.06166E+00  1.12569E-02  1.86933E-01 -2.04805E-04  2.80707E-04  6.90915E-05  2.43562E-02 -3.55682E+00 -4.70443E-03  3.68115E-05  3.83831E-05 -2.95208E-06  1.50000E+01
  2.02309E+01  2.03064E+01  2.01093E+01 -8.31685E-02 -1.09741E+00  4.90717E-03  2.01271E-01 -1.84670E-04  2.46585E-04  5.76964E-05  2.06278E-02 -3.64317E+00 -3.68411E-03  3.49901E-05  3.84043E-05 -3.04529E-06  1.50000E+01
  2.04492E+01  2.03961E+01  1.99903E+01 -6.61986E-01  1.90242E-01 -3.35725E-03 -4.04559E-03  4.55422E-05  1.56692E-04  1.70720E-06 -2.66547E-03  6.17684E-01  4.41526E-04  4.32198E-05 -5.38591E-07  9.73432E-08  1.50000E+01
  2.04286E+01  2.03964E+01  1.99779E+01 -6.57937E-01  1.56988E-01 -1.04137E-02  8.04570E-02  4.27772E-05  2.37192E-04  5.07880E-06 -5.13878E-03  5.33629E-01  1.13599E-03  4.32907E-05  2.22536E-07  3.84301E-07  1.50000E+01
  2.04288E+01  2.03962E+01  2.00035E+01 -6.57954E-01  1.60981E-01  2.96534E-03  7.10145E-02  4.29381E-05  2.32896E-04 -7.39652E-07 -4.76252E-03  5.41401E-01 -1.25187E-04  4.29981E-05  1.41757E-07 -1.27536E-07  1.50000E+01
  2.06985E+01  2.04805E+01  1.96370E+01 -6.24008E-01 -3.28362E-02 -1.00107E-01  2.37121E-01  2.45127E-05  1.36256E-04  4.40142E-05 -6.48581E-03 -7.69977E-02  7.46776E-03  4.50145E-05  7.65583E-06 -1.02541E-06  1.50000E+01
  2.04108E+01  2.04035E+01  2.01686E+01 -6.07504E-01 -1.54311E-01  1.15910E-01  2.74440E-01  1.91914E-05  1.64410E-04 -9.51605E-06 -3.28032E-02 -3.93177E-01  9.08754E-03  4.55587E-05  8.11171E-06 -1.02040E-06  1.50000E+01
  2.04103E+01  2.04019E+01  2.01432E+01 -6.23181E-01 -7.39138E-02  9.62891E-02  2.02714E-01  2.36061E-05  1.79879E-04 -1.20023E-05 -2.52968E-02 -1.45481E-01  4.28515E-03  4.53822E-05  5.99814E-06 -1.08686E-06  1.50000E+01
  2.02279E+01  2.03103E+01  2.00816E+01 -9.59595E-02 -1.08511E+00  4.92439E-03  1.47129E-01 -1.86186E-04  2.54725E-04  4.32045E-05  2.08503E-02 -3.60940E+00 -2.64480E-03  3.55839E-05  3.77241E-05 -3.29944E-06  1.50000E+01
  2.02786E+01  2.03121E+01  2.02177E+01 -7.64040E-02 -1.10635E+00  1.08845E-02  3.84338E-01 -9.71908E-05  1.53373E-04  6.41645E-05  2.42547E-02 -3.58700E+00 -8.41159E-03  3.33170E-05  3.81377E-05  3.12056E-07  1.50000E+01
  2.02957E+01  2.03236E+01  2.02316E+01 -9.93966E-02 -1.08510E+00  2.01307E-02  4.44836E-01 -8.30228E-05  1.44087E-04  5.83556E-05  2.72839E-02 -3.50380E+00 -9.47651E-03  3.36464E-05  3.69204E-05  5.14384E-07  1.50000E+01
  2.02902E+01  2.03310E+01  2.02059E+01 -1.30626E-01 -1.04962E+00  2.67046E-02  5.21238E-01 -1.25012E-04  1.97718E-04  7.10961E-05  2.80135E-02 -3.40981E+00 -7.93526E-03  3.63122E-05  3.77077E-05 -9.77884E-07  1.50000E+01
  2.00811E+01  2.00955E+01  2.01540E+01  1.17586E-02 -1.24730E+00 -1.01049E-03 -1.69481E-01  1.55858E-04 -3.12867E-05 -5.62567E-05  1.20975E-03 -3.86372E+00 -8.81117E-05  4.03998E-05  5.40871E-05  1.28686E-07  1.50000E+01
  2.00712E+01  2.00747E+01  2.01653E+01  8.23513E-03 -1.25059E+00 -7.84880E-04 -1.68547E-01  1.90337E-04 -5.25525E-05 -8.17373E-05  9.33144E-04 -3.84477E+00 -8.80404E-05  4.42839E-05  5.95289E-05 -7.85224E-07  1.50000E+01