 TITLE="3D TRIANGULAR SURFACE DATA"
VARIABLES="X","Y","Z","U","V","W","P", "Fex", "Fey", "Fez","Finx","Finy","Finz","WSSx","WSSy","WSSz","AMForce"
 ZONE T="unstruc"N=        1757 E=        3355 F=FEPOINT  ET=TRIANGLE
  2.04629E+01  2.03020E+01  2.00966E+01  1.21018E-01  6.07775E-01 -2.68122E-02 -6.40944E-02  2.36595E-05  1.08343E-05  7.95926E-06  3.98914E-03  2.51865E+00 -2.37052E-03  1.88210E-05 -4.18965E-06  1.02713E-05  1.50000E+01
  2.04836E+01  2.02951E+01  2.00970E+01  1.31636E-01  6.40418E-01 -2.54070E-02 -3.32674E-04  1.48348E-05  1.61474E-05  1.28269E-06 -2.30660E-03  1.24726E+00  2.30969E-03  8.47644E-06 -1.99408E-06  4.86422E-06  1.50000E+01
  2.04790E+01  2.02930E+01  2.00760E+01  1.34652E-01  6.36788E-01 -2.13265E-02  4.24529E-02  2.21732E-05  2.79402E-05  3.71449E-07  1.08925E-03  1.82700E+00 -2.75487E-03  1.15800E-05 -3.14938E-06  5.44883E-06  1.50000E+01
  2.04599E+01  2.03101E+01  2.01273E+01  1.10244E-01  5.94846E-01 -3.44089E-02 -8.33798E-02  1.05107E-05 -2.27326E-05  1.63677E-05  1.75681E-03  2.07792E+00 -3.16521E-03  1.73915E-05 -2.88699E-06  1.10869E-05  1.50000E+01
  2.04798E+01  2.03010E+01  2.01177E+01  1.24749E-01  6.29027E-01 -3.04133E-02 -7.70317E-02  9.90774E-06 -1.32132E-05  1.18608E-05  3.88255E-03  1.79361E+00  2.68912E-03  1.37380E-05 -2.60873E-06  9.00039E-06  1.50000E+01
  2.04978E+01  2.02925E+01  2.01091E+01  1.37235E-01  6.59332E-01 -2.82239E-02  2.43286E-03  1.05153E-05 -3.03194E-06  6.76717E-06  1.16107E-03  1.61793E+00 -1.42766E-03  1.08750E-05 -2.45907E-06  6.52207E-06  1.50000E+01
  2.04974E+01  2.02880E+01  2.00854E+01  1.42797E-01  6.63840E-01 -2.25723E-02  6.26437E-03  1.28225E-05  6.30798E-06  3.50098E-06  1.89751E-04  1.64063E+00  7.60991E-04  9.74237E-06 -2.61598E-06  5.10900E-06  1.50000E+01
  2.04764E+01  2.02904E+01  2.00492E+01  1.38358E-01  6.36288E-01 -1.45065E-02  2.03243E-01  2.03495E-05  2.33601E-05  8.62283E-07  2.59929E-03  1.98911E+00 -1.42557E-03  1.15904E-05 -3.51191E-06  3.87740E-06  1.50000E+01
  2.04586E+01  2.02983E+01  2.00654E+01  1.25695E-01  6.06651E-01 -1.89852E-02  6.48266E-02  3.02472E-05  4.44124E-05 -1.79815E-07  3.32123E-03  2.13879E+00 -6.60783E-04  1.44214E-05 -3.83112E-06  6.26305E-06  1.50000E+01
  2.04568E+01  2.02958E+01  2.00369E+01  1.28782E-01  6.06836E-01 -1.12710E-02  1.74009E-01  2.34306E-05  3.14831E-05  3.99453E-08  2.66961E-03  2.01109E+00 -4.62391E-04  1.22088E-05 -3.68180E-06  3.31683E-06  1.50000E+01
  2.04784E+01  2.03083E+01  2.01437E+01  1.14885E-01  6.18858E-01 -3.68329E-02 -1.10766E-01  6.43231E-06 -2.78647E-05  1.81103E-05  1.92219E-03  1.89966E+00 -1.30471E-03  1.56148E-05 -2.31128E-06  1.06883E-05  1.50000E+01
  2.04970E+01  2.02988E+01  2.01333E+01  1.29557E-01  6.51364E-01 -3.34993E-02 -6.97694E-02  6.40162E-06 -2.21289E-05  1.50397E-05  3.23293E-03  1.84227E+00  1.94694E-04  1.37409E-05 -2.36278E-06  9.59519E-06  1.50000E+01
  2.04195E+01  2.03157E+01  2.00955E+01  9.72340E-02  5.39068E-01 -2.80234E-02 -4.63079E-02  2.75088E-05  3.02301E-05  2.56913E-06  1.94496E-03  1.91395E+00 -1.15128E-03  1.73890E-05 -3.46203E-06  9.10355E-06  1.50000E+01
  2.04187E+01  2.03110E+01  2.00669E+01  1.03061E-01  5.43604E-01 -2.02775E-02  2.53822E-02  3.37448E-05  5.87098E-05 -2.60133E-06  2.37270E-03  1.90157E+00 -6.65853E-04  1.50027E-05 -3.65266E-06  6.12463E-06  1.50000E+01
  2.03992E+01  2.03190E+01  2.00808E+01  8.96857E-02  5.10484E-01 -2.47668E-02 -6.21715E-02  2.67621E-05  3.05344E-05  2.64914E-06  1.97357E-03  1.74638E+00 -9.05447E-04  1.68428E-05 -3.55320E-06  8.05140E-06  1.50000E+01
  2.04402E+01  2.03124E+01  2.01107E+01  1.04385E-01  5.68245E-01 -3.11579E-02 -8.04490E-02  2.06034E-05  4.25907E-06  9.17388E-06  1.71334E-03  2.14236E+00 -1.24256E-03  1.84735E-05 -3.47517E-06  1.04500E-05  1.50000E+01
  2.04199E+01  2.03219E+01  2.01237E+01  8.93726E-02  5.31793E-01 -3.50164E-02 -1.18591E-01  1.30498E-05 -2.16445E-05  1.69897E-05  1.66634E-03  1.83952E+00 -1.26404E-03  1.91566E-05 -2.85239E-06  1.17994E-05  1.50000E+01
  2.04398E+01  2.03198E+01  2.01390E+01  9.49634E-02  5.58672E-01 -3.78294E-02 -1.35250E-01  7.12625E-06 -3.67981E-05  2.32423E-05  2.01595E-03  1.90557E+00 -1.85253E-03  1.85461E-05 -2.22218E-06  1.30300E-05  1.50000E+01
  2.04396E+01  2.03068E+01  2.00813E+01  1.11710E-01  5.73987E-01 -2.36285E-02 -3.50507E-02  2.85468E-05  3.55173E-05  1.50717E-06  2.53485E-03  2.17222E+00 -8.11446E-04  1.63399E-05 -3.78306E-06  8.06685E-06  1.50000E+01
  2.04380E+01  2.03032E+01  2.00522E+01  1.16267E-01  5.75966E-01 -1.57083E-02 -1.25499E-02  2.44993E-05  3.14989E-05  9.36764E-07  2.80000E-03  1.99808E+00 -3.05870E-04  1.34462E-05 -3.63749E-06  4.96622E-06  1.50000E+01
  2.05148E+01  2.02839E+01  2.00975E+01  1.50180E-01  6.87689E-01 -2.52123E-02 -4.50947E-02  5.47767E-06 -1.86808E-05  9.50348E-06  1.34543E-03  1.86118E+00 -1.10709E-03  1.14579E-05 -2.95098E-06  6.39428E-06  1.50000E+01
  2.05141E+01  2.02799E+01  2.00722E+01  1.55583E-01  6.90972E-01 -1.91072E-02  1.97361E-02  8.88021E-06 -7.74013E-06  5.48059E-06  1.44930E-03  1.93920E+00  5.45839E-05  1.08110E-05 -3.20520E-06  5.10264E-06  1.50000E+01
  2.05150E+01  2.02894E+01  2.01225E+01  1.43296E-01  6.82194E-01 -3.08211E-02 -5.21269E-02  3.48188E-06 -2.67368E-05  1.37187E-05  1.82490E-03  1.89720E+00 -1.28486E-03  1.26215E-05 -2.74378E-06  7.77695E-06  1.50000E+01
  2.04955E+01  2.02851E+01  2.00606E+01  1.47266E-01  6.64352E-01 -1.69235E-02  1.97629E-02  1.13572E-05 -7.14961E-07  4.18997E-06  1.99612E-03  1.90773E+00 -1.06158E-03  1.05937E-05 -3.18395E-06  4.71325E-06  1.50000E+01
  2.05131E+01  2.02772E+01  2.00461E+01  1.59701E-01  6.92344E-01 -1.28269E-02  1.07911E-01  6.42404E-06 -1.31516E-05  4.18914E-06  2.44445E-03  2.04805E+00 -4.95471E-04  1.02024E-05 -3.37364E-06  3.49702E-06  1.50000E+01
  2.04370E+01  2.03013E+01  2.00237E+01  1.18768E-01  5.76775E-01 -7.65345E-03  6.81739E-02  1.62612E-05  1.01984E-05  1.37191E-06  2.75477E-03  1.92475E+00 -8.73893E-05  1.19515E-05 -3.59089E-06  2.35634E-06  1.50000E+01
  2.04752E+01  2.02888E+01  2.00216E+01  1.40632E-01  6.36373E-01 -6.96366E-03  1.92092E-01  8.07031E-06 -9.83608E-06  2.12994E-06  2.83715E-03  2.02248E+00 -5.13360E-04  1.08909E-05 -3.55593E-06  1.94915E-06  1.50000E+01
  2.04559E+01  2.02947E+01  2.00087E+01  1.30248E-01  6.06795E-01 -3.34804E-03  2.38925E-01  1.37959E-05  5.08631E-06  6.31247E-07  2.90053E-03  1.97303E+00 -6.06651E-05  1.14841E-05 -3.65484E-06  9.26438E-07  1.50000E+01
  2.04201E+01  2.03295E+01  2.01509E+01  7.98555E-02  5.22218E-01 -4.10584E-02 -1.51558E-01  5.88036E-06 -4.41322E-05  2.62271E-05  1.97696E-03  1.73539E+00 -1.70033E-03  1.93414E-05 -1.91683E-06  1.30608E-05  1.50000E+01
  2.04399E+01  2.03281E+01  2.01659E+01  8.42077E-02  5.48118E-01 -4.32474E-02 -1.66105E-01 -5.03810E-07 -5.89090E-05  3.31043E-05  2.19858E-03  1.78375E+00 -2.02759E-03  1.85038E-05 -1.40633E-06  1.34998E-05  1.50000E+01
  2.08122E+01  2.02526E+01  1.96706E+01  2.21435E-01  1.10073E+00  6.58153E-02 -4.76930E-01 -8.12203E-05 -2.72602E-04 -1.75529E-04  2.96810E-03  3.46495E+00  1.57682E-04  2.49621E-05 -4.33249E-06 -8.76599E-06  1.50000E+01
  2.07931E+01  2.02514E+01  1.96855E+01  2.19424E-01  1.07087E+00  6.05718E-02 -4.67563E-01 -8.80685E-05 -2.71632E-04 -1.66646E-04  2.61671E-03  3.36784E+00  1.27573E-05  2.42019E-05 -4.69860E-06 -9.08096E-06  1.50000E+01
  2.08102E+01  2.02377E+01  1.96971E+01  2.42366E-01  1.10522E+00  6.22605E-02 -4.41464E-01 -7.76372E-05 -2.59178E-04 -1.50874E-04  2.84569E-03  3.47582E+00  1.01397E-04  2.44122E-05 -5.49771E-06 -7.38736E-06  1.50000E+01
  2.07912E+01  2.02372E+01  1.97122E+01  2.39295E-01  1.07565E+00  5.70678E-02 -4.49396E-01 -8.09094E-05 -2.51234E-04 -1.39642E-04  2.52901E-03  3.38033E+00 -2.02405E-05  2.29805E-05 -5.17329E-06 -8.24430E-06  1.50000E+01
  2.08084E+01  2.02240E+01  1.97241E+01  2.61497E-01  1.10933E+00  5.80872E-02 -4.58439E-01 -7.30797E-05 -2.43987E-04 -1.27742E-04  2.74026E-03  3.48588E+00  5.24045E-05  2.39433E-05 -6.20204E-06 -6.62336E-06  1.50000E+01
  2.08708E+01  2.02614E+01  1.96275E+01  2.21561E-01  1.19489E+00  8.53979E-02 -3.70477E-01 -3.82112E-05 -2.37270E-04 -1.76683E-04  3.80028E-03  3.77098E+00  1.32908E-03  3.17617E-05 -4.92013E-06 -6.07240E-06  1.50000E+01
  2.08511E+01  2.02576E+01  1.96415E+01  2.22762E-01  1.16300E+00  7.83794E-02 -4.59580E-01 -5.98963E-05 -2.68032E-04 -1.90146E-04  3.63908E-03  3.66757E+00  8.77336E-04  2.85639E-05 -4.63311E-06 -6.89237E-06  1.50000E+01
  2.08682E+01  2.02442E+01  1.96530E+01  2.46404E-01  1.19853E+00  8.17879E-02 -3.92626E-01 -3.81004E-05 -2.23795E-04 -1.52173E-04  3.68742E-03  3.78086E+00  1.10749E-03  3.17972E-05 -6.22720E-06 -5.42824E-06  1.50000E+01
  2.05152E+01  2.02961E+01  2.01476E+01  1.34540E-01  6.75156E-01 -3.59341E-02 -1.71628E-02  5.84952E-07 -3.78222E-05  2.07893E-05  2.83673E-03  1.96949E+00 -4.90232E-04  1.43733E-05 -2.22785E-06  1.04321E-05  1.50000E+01
  2.08659E+01  2.02281E+01  1.96791E+01  2.69307E-01  1.20185E+00  7.73742E-02 -4.17454E-01 -3.52886E-05 -2.03013E-04 -1.24878E-04  3.58913E-03  3.78979E+00  9.07459E-04  3.00891E-05 -6.73256E-06 -4.90628E-06  1.50000E+01
  2.08855E+01  2.02313E+01  1.96646E+01  2.69672E-01  1.23342E+00  8.47517E-02 -2.14587E-01 -9.06258E-06 -1.45797E-04 -9.46989E-05  3.70182E-03  3.89240E+00  1.22889E-03  3.31408E-05 -7.00210E-06 -4.22481E-06  1.50000E+01
  2.05311E+01  2.02695E+01  2.00320E+01  1.71798E-01  7.20192E-01 -8.88335E-03  2.96629E-02 -2.33337E-06 -3.53129E-05  4.26504E-06  2.69411E-03  2.15563E+00 -1.98331E-04  9.67691E-06 -3.43593E-06  2.22605E-06  1.50000E+01
  2.05125E+01  2.02757E+01  2.00193E+01  1.62133E-01  6.92987E-01 -5.99467E-03  9.19185E-02  4.52220E-06 -1.75072E-05  1.88312E-06  2.99270E-03  2.10572E+00 -4.43264E-04  9.94533E-06 -3.52328E-06  1.40601E-06  1.50000E+01
  2.04592E+01  2.03181E+01  2.01546E+01  9.96611E-02  5.84219E-01 -4.02635E-02 -1.42169E-01  4.99867E-06 -3.81345E-05  2.48346E-05  1.93421E-03  1.89010E+00 -2.13470E-03  1.74944E-05 -1.69317E-06  1.31938E-05  1.50000E+01
  2.04594E+01  2.03269E+01  2.01807E+01  8.79290E-02  5.73490E-01 -4.50114E-02 -1.84881E-01 -3.59490E-06 -6.22892E-05  3.76014E-05  2.36786E-03  1.81756E+00 -2.05904E-03  1.77363E-05 -6.43846E-07  1.45457E-05  1.50000E+01
  2.04783E+01  2.03165E+01  2.01697E+01  1.03770E-01  6.09025E-01 -4.21464E-02 -1.11281E-01  5.82902E-06 -3.13725E-05  2.37517E-05  2.11774E-03  1.88660E+00 -1.76972E-03  1.66572E-05 -1.23651E-06  1.32806E-05  1.50000E+01
  2.04365E+01  2.03008E+01  1.99956E+01  1.19386E-01  5.76393E-01  4.75449E-04  8.19556E-02  1.28205E-05  8.44809E-07 -2.01833E-07  2.77981E-03  1.88215E+00  2.01156E-04  1.14781E-05 -3.55859E-06 -2.33295E-07  1.50000E+01
  2.04747E+01  2.02885E+01  1.99939E+01  1.41138E-01  6.35878E-01  7.88649E-04  2.19250E-01  4.46347E-06 -1.98799E-05 -7.04392E-07  3.06331E-03  2.01833E+00  1.33619E-05  1.06537E-05 -3.53382E-06 -5.17102E-07  1.50000E+01
  2.04556E+01  2.02951E+01  1.99810E+01  1.29836E-01  6.05692E-01  4.59542E-03  2.30034E-01  1.48300E-05  8.64736E-06 -7.38402E-07  2.93697E-03  1.94385E+00  2.82735E-04  1.13385E-05 -3.58858E-06 -1.32499E-06  1.50000E+01
  2.08241E+01  2.01991E+01  1.97642E+01  2.99977E-01  1.14619E+00  5.36605E-02 -3.72162E-01 -5.48679E-05 -2.08414E-04 -9.09242E-05  2.83747E-03  3.59917E+00  1.19161E-04  2.35592E-05 -7.15703E-06 -4.48054E-06  1.50000E+01
  2.08429E+01  2.01989E+01  1.97487E+01  3.05047E-01  1.17664E+00  5.98105E-02 -4.12646E-01 -5.15962E-05 -2.15874E-04 -9.97595E-05  3.13240E-03  3.70096E+00  3.31290E-04  2.54758E-05 -7.47166E-06 -3.94364E-06  1.50000E+01
  2.08256E+01  2.02112E+01  1.97363E+01  2.83428E-01  1.14303E+00  5.90412E-02 -3.91502E-01 -6.06328E-05 -2.25807E-04 -1.11378E-04  2.94216E-03  3.59246E+00  1.75629E-04  2.43687E-05 -6.78595E-06 -5.23325E-06  1.50000E+01
  2.05329E+01  2.02799E+01  2.01106E+01  1.57204E-01  7.12066E-01 -2.77005E-02 -3.24945E-02  3.01857E-07 -3.47255E-05  1.43370E-05  1.91147E-03  2.04273E+00 -1.07459E-03  1.24692E-05 -3.07507E-06  7.24780E-06  1.50000E+01
  2.01414E+01  2.03986E+01  2.01881E+01 -3.99738E-02  1.76733E-02 -2.75115E-02 -5.72989E-01  3.34515E-05 -2.26585E-04  6.07828E-05 -4.58368E-03  1.14940E-01 -1.13319E-02  4.35101E-05 -5.35962E-07  3.76012E-06  1.50000E+01
  2.01208E+01  2.04012E+01  2.02000E+01 -4.21694E-02 -8.97029E-02 -1.36726E-02 -5.30327E-01  6.27631E-05 -2.11303E-04  4.96488E-05 -1.20889E-02 -2.30507E-01 -4.12709E-03  5.66225E-05  3.48779E-06  4.82434E-06  1.50000E+01
  2.01413E+01  2.04046E+01  2.02129E+01 -4.41699E-02 -6.81744E-02 -1.57901E-02 -4.46647E-01  5.01438E-05 -2.07103E-04  5.77019E-05 -7.78203E-03 -1.68740E-01 -6.37496E-03  4.85246E-05  1.94636E-06  4.49235E-06  1.50000E+01
  2.08811E+01  2.02010E+01  1.97181E+01  3.12443E-01  1.23877E+00  7.37017E-02 -4.02037E-01 -9.35809E-06 -1.33788E-04 -6.89082E-05  3.60090E-03  3.90664E+00  8.63334E-04  3.29018E-05 -9.10211E-06 -2.43319E-06  1.50000E+01
  2.09004E+01  2.02033E+01  1.97032E+01  3.14427E-01  1.26995E+00  8.12156E-02 -8.98074E-02 -2.40788E-06 -6.97239E-05 -3.78506E-05  2.64069E-02  2.06843E+00  9.86180E-03  1.72023E-05 -4.57975E-06 -9.27838E-07  1.50000E+01
  2.08832E+01  2.02155E+01  1.96910E+01  2.92062E-01  1.23624E+00  7.95692E-02 -3.73263E-01 -1.73746E-05 -1.68692E-04 -9.82438E-05  3.66097E-03  3.90009E+00  1.05170E-03  3.24041E-05 -7.89121E-06 -3.46773E-06  1.50000E+01
  2.08274E+01  2.02245E+01  1.97089E+01  2.65009E-01  1.13953E+00  6.39017E-02 -4.41307E-01 -6.36667E-05 -2.38535E-04 -1.31760E-04  3.04695E-03  3.58430E+00  2.45787E-04  2.52611E-05 -6.36110E-06 -5.85203E-06  1.50000E+01
  2.08446E+01  2.02118E+01  1.97210E+01  2.87320E-01  1.17370E+00  6.53692E-02 -4.14142E-01 -5.05314E-05 -2.18246E-04 -1.13829E-04  3.23666E-03  3.69409E+00  4.27061E-04  2.61828E-05 -6.94572E-06 -4.72923E-06  1.50000E+01
  2.04363E+01  2.03019E+01  1.99680E+01  1.18091E-01  5.74600E-01  8.50648E-03  5.00672E-02  1.63457E-05  1.12802E-05 -1.46506E-06  2.69536E-03  1.85050E+00  4.23613E-04  1.17485E-05 -3.45423E-06 -2.71220E-06  1.50000E+01
  2.04179E+01  2.03081E+01  2.00384E+01  1.06727E-01  5.45852E-01 -1.21316E-02 -1.29234E-02  2.45193E-05  3.62211E-05 -3.99776E-07  2.53605E-03  1.85052E+00 -1.79458E-04  1.27429E-05 -3.54361E-06  3.49087E-06  1.50000E+01
  2.04174E+01  2.03068E+01  2.00103E+01  1.08392E-01  5.46460E-01 -3.85217E-03 -3.93171E-02  1.30258E-05  4.25959E-07  7.97166E-07  2.54243E-03  1.80974E+00  9.92641E-05  1.20541E-05 -3.57847E-06  9.52827E-07  1.50000E+01
  2.08536E+01  2.02750E+01  1.96163E+01  1.97480E-01  1.15878E+00  8.12161E-02 -5.21796E-01 -5.92823E-05 -2.83355E-04 -2.18109E-04  3.80989E-03  3.65611E+00  1.08252E-03  2.96683E-05 -3.84198E-06 -7.28614E-06  1.50000E+01
  2.07896E+01  2.02241E+01  1.97395E+01  2.57385E-01  1.08001E+00  5.29735E-02 -4.33022E-01 -7.21093E-05 -2.29317E-04 -1.13936E-04  2.44426E-03  3.38991E+00 -4.46708E-05  2.24091E-05 -5.76597E-06 -7.48297E-06  1.50000E+01
  2.08068E+01  2.02114E+01  1.97517E+01  2.78804E-01  1.11307E+00  5.33584E-02 -3.60786E-01 -6.54468E-05 -2.23322E-04 -1.03897E-04  2.62824E-03  3.49365E+00  1.11112E-05  2.28845E-05 -6.38984E-06 -6.17105E-06  1.50000E+01
  2.03986E+01  2.03152E+01  2.00527E+01  9.42997E-02  5.14347E-01 -1.67408E-02 -4.49307E-03  3.41100E-05  6.37438E-05 -2.99241E-06  2.15759E-03  1.74108E+00 -4.53553E-04  1.44386E-05 -3.65290E-06  4.74446E-06  1.50000E+01
  2.03787E+01  2.03196E+01  2.00388E+01  8.53209E-02  4.85856E-01 -1.30627E-02 -6.66896E-02  2.55797E-05  3.69577E-05  2.43455E-07  1.99138E-03  1.61322E+00 -3.70991E-04  1.42148E-05 -3.68957E-06  3.59436E-06  1.50000E+01
  2.03792E+01  2.03226E+01  2.00665E+01  8.18014E-02  4.82649E-01 -2.13729E-02 -8.27608E-02  2.45723E-05  2.72513E-05  2.51132E-06  1.92226E-03  1.61577E+00 -7.55306E-04  1.60488E-05 -3.57058E-06  6.62391E-06  1.50000E+01
  2.05323E+01  2.02751E+01  2.00847E+01  1.63590E-01  7.16261E-01 -2.17539E-02  2.28321E-02  3.75863E-06 -2.29773E-05  8.88929E-06  1.92232E-03  2.05773E+00 -6.71110E-04  1.13322E-05 -3.27806E-06  5.62364E-06  1.50000E+01
  2.05317E+01  2.02716E+01  2.00586E+01  1.68477E-01  7.18910E-01 -1.54164E-02  1.07211E-01  2.06373E-06 -2.49008E-05  6.30303E-06  2.15389E-03  2.10836E+00 -9.77601E-05  1.03495E-05 -3.37270E-06  4.08040E-06  1.50000E+01
  2.05492E+01  2.02620E+01  2.00179E+01  1.83430E-01  7.47571E-01 -5.10365E-03 -1.17642E-02 -1.10809E-06 -3.14349E-05  2.50211E-06  2.70176E-03  2.24941E+00 -4.75739E-05  9.58532E-06 -3.56771E-06  1.45859E-06  1.50000E+01
  2.05307E+01  2.02687E+01  2.00050E+01  1.73267E-01  7.20466E-01 -2.06708E-03 -1.64914E-02 -2.89173E-06 -3.62832E-05  5.89667E-07  2.96574E-03  2.18444E+00 -1.79353E-04  9.52379E-06 -3.51222E-06  3.18960E-07  1.50000E+01
  2.08466E+01  2.02259E+01  1.96939E+01  2.67690E-01  1.17045E+00  7.03688E-02 -4.42478E-01 -5.17545E-05 -2.28066E-04 -1.32844E-04  3.34926E-03  3.68651E+00  5.41617E-04  2.71052E-05 -6.43541E-06 -5.40827E-06  1.50000E+01
  2.08487E+01  2.02412E+01  1.96674E+01  2.46169E-01  1.16689E+00  7.47341E-02 -4.85858E-01 -5.54413E-05 -2.44993E-04 -1.58047E-04  3.49335E-03  3.67816E+00  6.95611E-04  2.83754E-05 -5.94372E-06 -5.91856E-06  1.50000E+01
  2.07741E+01  2.02508E+01  1.97006E+01  2.16864E-01  1.04203E+00  5.60802E-02 -4.78141E-01 -8.67773E-05 -2.55338E-04 -1.49909E-04  2.35292E-03  3.27499E+00 -1.64651E-05  2.29862E-05 -4.60871E-06 -9.56102E-06  1.50000E+01
  2.04002E+01  2.03311E+01  2.01360E+01  7.49029E-02  4.95922E-01 -3.86386E-02 -1.01412E-01  1.18308E-05 -2.82165E-05  1.86813E-05  1.84465E-03  1.65692E+00 -1.46823E-03  1.97935E-05 -2.59092E-06  1.15651E-05  1.50000E+01
  2.03807E+01  2.03403E+01  2.01481E+01  6.07001E-02  4.59819E-01 -4.20163E-02 -1.39187E-01  4.37491E-06 -5.87058E-05  3.07502E-05  2.00916E-03  1.51553E+00 -1.77705E-03  2.10635E-05 -1.92414E-06  1.32683E-05  1.50000E+01
  2.04007E+01  2.03392E+01  2.01626E+01  6.49613E-02  4.85328E-01 -4.40535E-02 -1.52694E-01  1.58827E-06 -6.25163E-05  3.54698E-05  2.11947E-03  1.59371E+00 -1.89361E-03  2.04352E-05 -1.15347E-06  1.47142E-05  1.50000E+01
  2.08638E+01  2.02132E+01  1.97059E+01  2.90263E-01  1.20487E+00  7.22564E-02 -4.14707E-01 -3.53375E-05 -1.98206E-04 -1.09953E-04  3.48805E-03  3.79731E+00  7.42367E-04  2.90796E-05 -7.26454E-06 -4.38853E-06  1.50000E+01
  2.07951E+01  2.02666E+01  1.96593E+01  1.97800E-01  1.06570E+00  6.34286E-02 -5.33640E-01 -9.49188E-05 -2.91103E-04 -1.95472E-04  2.73646E-03  3.35453E+00  5.44533E-05  2.47127E-05 -3.60120E-06 -1.02136E-05  1.50000E+01
  2.07760E+01  2.02654E+01  1.96742E+01  1.96229E-01  1.03655E+00  5.89369E-02 -4.95329E-01 -9.88067E-05 -2.83932E-04 -1.82584E-04  2.42302E-03  3.26010E+00  1.28285E-05  2.38341E-05 -3.97040E-06 -1.03382E-05  1.50000E+01
  2.04788E+01  2.03258E+01  2.01953E+01  9.11202E-02  5.98418E-01 -4.63584E-02 -2.04010E-01 -7.31284E-06 -6.85164E-05  4.28808E-05  2.56955E-03  1.86513E+00 -1.93948E-03  1.72869E-05  5.20361E-08  1.55512E-05  1.50000E+01
  2.04974E+01  2.03149E+01  2.01842E+01  1.07498E-01  6.33575E-01 -4.36877E-02 -1.16662E-01  3.58907E-06 -3.47916E-05  2.64306E-05  2.52712E-03  1.93676E+00 -1.51938E-03  1.62836E-05 -8.58127E-07  1.36304E-05  1.50000E+01
  2.04600E+01  2.03368E+01  2.02063E+01  7.45248E-02  5.61542E-01 -4.86004E-02 -2.06129E-01 -1.52505E-05 -9.59586E-05  5.68113E-05  2.56052E-03  1.77678E+00 -2.21826E-03  1.82529E-05  4.91787E-07  1.59908E-05  1.50000E+01
  2.04745E+01  2.02896E+01  1.99664E+01  1.39683E-01  6.34168E-01  8.49597E-03  1.74171E-01  1.37917E-05  7.02476E-06 -1.31954E-06  2.97368E-03  2.00454E+00  3.24837E-04  1.10547E-05 -3.49520E-06 -2.63065E-06  1.50000E+01
  2.08315E+01  2.02547E+01  1.96559E+01  2.22639E-01  1.13151E+00  7.17886E-02 -4.95130E-01 -7.24042E-05 -2.71953E-04 -1.84075E-04  3.33785E-03  3.56562E+00  4.57207E-04  2.65084E-05 -4.39507E-06 -7.95375E-06  1.50000E+01
  2.08339E+01  2.02713E+01  1.96303E+01  1.98713E-01  1.12699E+00  7.46698E-02 -5.34436E-01 -7.61631E-05 -2.95411E-04 -2.16937E-04  3.51304E-03  3.55301E+00  6.06136E-04  2.73308E-05 -3.38730E-06 -8.73822E-06  1.50000E+01
  2.08144E+01  2.02686E+01  1.96446E+01  1.98722E-01  1.09589E+00  6.86913E-02 -5.72887E-01 -8.81545E-05 -2.96861E-04 -2.08411E-04  3.12837E-03  3.45268E+00  2.54601E-04  2.59436E-05 -3.45150E-06 -9.62993E-06  1.50000E+01
  2.07570E+01  2.02648E+01  1.96892E+01  1.94237E-01  1.00844E+00  5.51840E-02 -5.16616E-01 -9.28238E-05 -2.59350E-04 -1.60620E-04  2.22556E-03  3.17009E+00  6.58415E-05  2.26171E-05 -3.58090E-06 -1.11653E-05  1.50000E+01
  2.05513E+01  2.02761E+01  2.01242E+01  1.63819E-01  7.36825E-01 -2.99816E-02  5.76871E-03 -4.59543E-06 -4.81590E-05  1.91823E-05  2.25916E-03  2.17098E+00 -8.98758E-04  1.31303E-05 -3.05294E-06  8.06614E-06  1.50000E+01
  2.05333E+01  2.02861E+01  2.01362E+01  1.49205E-01  7.06420E-01 -3.30888E-02 -3.15075E-02 -4.55023E-06 -4.98308E-05  2.21108E-05  2.29412E-03  2.06161E+00 -1.05610E-03  1.37002E-05 -2.71499E-06  9.08516E-06  1.50000E+01
  2.03997E+01  2.03244E+01  2.01087E+01  8.31823E-02  5.04367E-01 -3.21485E-02 -1.13703E-01  1.59005E-05 -1.04821E-05  1.18569E-05  1.89083E-03  1.71628E+00 -1.22919E-03  1.83718E-05 -3.13795E-06  9.98852E-06  1.50000E+01
  2.03797E+01  2.03271E+01  2.00941E+01  7.65004E-02  4.77290E-01 -2.91386E-02 -1.20836E-01  1.83376E-05 -3.69799E-07  8.40888E-06  1.89661E-03  1.59981E+00 -1.12910E-03  1.78358E-05 -3.31548E-06  8.70741E-06  1.50000E+01
  2.01205E+01  2.04062E+01  2.02248E+01 -4.07174E-02 -2.00100E-01  0.00000E+00 -4.47755E-01  3.42814E-05 -1.01607E-04  2.70968E-05 -5.13844E+00  1.96767E-02 -2.60122E+00  2.84409E-05  2.73106E-06  3.13865E-06  1.50000E+01
  2.09052E+01  2.02353E+01  1.96504E+01  2.68674E-01  1.26493E+00  9.23425E-02 -6.70078E-02  4.29034E-06 -5.07708E-05 -3.49959E-05  2.44517E-02  2.06266E+00  1.17362E-02  1.72837E-05 -3.29584E-06 -2.04664E-06  1.50000E+01
  2.08880E+01  2.02482E+01  1.96389E+01  2.45275E-01  1.23030E+00  8.91401E-02 -3.28820E-01 -1.27196E-05 -1.72593E-04 -1.24685E-04  3.75674E-03  3.88384E+00  1.46061E-03  3.45979E-05 -5.92872E-06 -5.23229E-06  1.50000E+01
  2.07781E+01  2.02810E+01  1.96483E+01  1.73880E-01  1.03065E+00  6.11175E-02 -5.92738E-01 -1.08081E-04 -3.07143E-04 -2.14755E-04  2.52519E-03  3.24442E+00  4.76090E-05  2.43165E-05 -2.75792E-06 -1.15575E-05  1.50000E+01
  2.07590E+01  2.02798E+01  1.96631E+01  1.72818E-01  1.00222E+00  5.74137E-02 -5.40971E-01 -1.06196E-04 -2.89705E-04 -1.94888E-04  2.27634E-03  3.15272E+00  9.67993E-05  2.34246E-05 -2.92173E-06 -1.18649E-05  1.50000E+01
  2.04171E+01  2.03070E+01  1.99825E+01  1.08153E-01  5.45507E-01  4.40361E-03 -3.49051E-02  1.34405E-05  2.54205E-06 -1.06008E-06  2.50964E-03  1.77555E+00  3.09870E-04  1.18147E-05 -3.49232E-06 -1.48681E-06  1.50000E+01
  2.05339E+01  2.02935E+01  2.01618E+01  1.39337E-01  6.99525E-01 -3.79462E-02  2.28897E-03 -8.07729E-06 -6.03250E-05  2.97145E-05  2.75850E-03  2.08155E+00 -7.36530E-04  1.48185E-05 -2.09821E-06  1.10004E-05  1.50000E+01
  2.04206E+01  2.03382E+01  2.01773E+01  6.87115E-02  5.10936E-01 -4.58965E-02 -1.87455E-01 -4.11393E-06 -7.46235E-05  4.22698E-05  2.30454E-03  1.66079E+00 -2.09103E-03  1.94639E-05 -5.78742E-07  1.51023E-05  1.50000E+01
  2.04403E+01  2.03374E+01  2.01919E+01  7.18984E-02  5.36382E-01 -4.74366E-02 -2.13602E-01 -9.90670E-06 -8.62442E-05  4.94629E-05  2.45441E-03  1.71892E+00 -2.23448E-03  1.86907E-05 -7.51775E-08  1.53261E-05  1.50000E+01
  2.01618E+01  2.03939E+01  2.01764E+01 -3.26399E-02  8.85000E-02 -3.69009E-02 -5.13752E-01  1.39585E-05 -2.17819E-04  6.73007E-05  1.56658E-03  3.20133E-01 -1.27358E-02  3.62175E-05 -2.10805E-06  4.92936E-06  1.50000E+01
  2.01414E+01  2.03924E+01  2.01634E+01 -3.51313E-02  7.95109E-02 -3.35974E-02 -5.99395E-01  1.65562E-05 -2.23863E-04  5.92684E-05  9.25002E-06  2.99071E-01 -1.27067E-02  3.69718E-05 -2.44344E-06  2.97213E-06  1.50000E+01
  2.08365E+01  2.02890E+01  1.96053E+01  1.72969E-01  1.12212E+00  7.67395E-02 -6.29414E-01 -8.21014E-05 -3.24132E-04 -2.58222E-04  3.72566E-03  3.53973E+00  7.93121E-04  2.83038E-05 -2.38936E-06 -9.27600E-06  1.50000E+01
  2.03589E+01  2.03241E+01  2.00251E+01  7.61411E-02  4.58101E-01 -9.21275E-03 -1.05235E-01  2.51647E-05  3.80742E-05  3.98409E-07  1.95157E-03  1.50216E+00 -3.10723E-04  1.41080E-05 -3.67014E-06  2.37560E-06  1.50000E+01
  2.03593E+01  2.03263E+01  2.00525E+01  7.36150E-02  4.55562E-01 -1.78200E-02 -9.16126E-02  2.47145E-05  3.34806E-05  9.51834E-08  1.91092E-03  1.50333E+00 -6.84350E-04  1.50927E-05 -3.57117E-06  4.41234E-06  1.50000E+01
  2.05507E+01  2.02705E+01  2.00980E+01  1.71195E-01  7.41411E-01 -2.42882E-02 -3.93568E-04 -2.97582E-06 -4.15599E-05  1.35706E-05  2.20695E-03  2.17569E+00 -6.90772E-04  1.18846E-05 -3.31639E-06  6.30731E-06  1.50000E+01
  2.05501E+01  2.02663E+01  2.00716E+01  1.76946E-01  7.44708E-01 -1.81390E-02 -1.66998E-02 -3.50524E-06 -4.06399E-05  1.02854E-05  2.29194E-03  2.19524E+00 -3.70837E-04  1.08903E-05 -3.43229E-06  4.95533E-06  1.50000E+01
  2.03813E+01  2.03489E+01  2.01743E+01  5.02034E-02  4.47668E-01 -4.67005E-02 -1.53105E-01 -4.06527E-06 -8.69684E-05  4.56712E-05  2.11107E-03  1.46272E+00 -2.18649E-03  2.11646E-05 -8.36810E-07  1.45739E-05  1.50000E+01
  2.03619E+01  2.03586E+01  2.01859E+01  3.56180E-02  4.08993E-01 -4.88708E-02 -1.79389E-01 -7.41998E-06 -1.05043E-04  5.53999E-05  2.15467E-03  1.33055E+00 -2.63809E-03  2.18710E-05 -2.27066E-07  1.50975E-05  1.50000E+01
  2.03819E+01  2.03585E+01  2.02001E+01  3.78879E-02  4.33198E-01 -4.99138E-02 -2.24367E-01 -1.08523E-05 -1.08839E-04  6.11784E-05  2.19584E-03  1.40597E+00 -2.62315E-03  2.10663E-05  6.76214E-07  1.65042E-05  1.50000E+01
  2.07400E+01  2.02791E+01  1.96781E+01  1.71435E-01  9.74766E-01  5.43960E-02 -5.31619E-01 -9.77435E-05 -2.63437E-04 -1.71517E-04  2.14701E-03  3.06514E+00  2.15546E-04  2.25249E-05 -2.40607E-06 -1.29827E-05  1.50000E+01
  2.03981E+01  2.03131E+01  2.00247E+01  9.69754E-02  5.16190E-01 -8.37903E-03  1.76040E-03  2.55112E-05  3.90566E-05 -4.30890E-07  2.25536E-03  1.71868E+00 -7.74407E-05  1.32605E-05 -3.73720E-06  2.08449E-06  1.50000E+01
  2.03978E+01  2.03125E+01  1.99969E+01  9.77568E-02  5.16231E-01  7.14881E-05  1.34811E-02  2.21497E-05  2.93907E-05 -1.14622E-07  2.25605E-03  1.69255E+00  1.70252E-04  1.28083E-05 -3.71846E-06 -2.14390E-07  1.50000E+01
  2.05496E+01  2.02635E+01  2.00449E+01  1.81061E-01  7.46736E-01 -1.16984E-02  2.03202E-02 -2.97074E-06 -3.73785E-05  6.44142E-06  2.45319E-03  2.22387E+00 -5.42437E-05  1.00587E-05 -3.50620E-06  3.41292E-06  1.50000E+01
  2.08168E+01  2.02855E+01  1.96193E+01  1.74237E-01  1.09068E+00  7.08201E-02 -6.26798E-01 -9.56744E-05 -3.24393E-04 -2.47071E-04  3.31053E-03  3.43789E+00  3.74032E-04  2.66645E-05 -2.42355E-06 -1.03410E-05  1.50000E+01
  2.07974E+01  2.02829E+01  1.96337E+01  1.74439E-01  1.06014E+00  6.55844E-02 -6.05608E-01 -1.05255E-04 -3.19771E-04 -2.33198E-04  2.89227E-03  3.33980E+00  1.32948E-04  2.52177E-05 -2.49449E-06 -1.11030E-05  1.50000E+01
  2.03802E+01  2.03330E+01  2.01213E+01  6.94574E-02  4.69694E-01 -3.60945E-02 -9.52957E-02  1.43024E-05 -2.12611E-05  1.54247E-05  1.93184E-03  1.56378E+00 -1.45776E-03  1.99017E-05 -2.89290E-06  1.08864E-05  1.50000E+01
  2.03602E+01  2.03352E+01  2.01069E+01  6.35221E-02  4.43922E-01 -3.33731E-02 -9.34607E-02  1.70367E-05 -1.21833E-05  1.22779E-05  1.94096E-03  1.46794E+00 -1.44053E-03  1.98923E-05 -3.09823E-06  1.01348E-05  1.50000E+01
  2.05855E+01  2.02478E+01  1.99896E+01  2.05359E-01  8.01150E-01  1.94146E-03 -3.25201E-03 -2.19158E-06 -3.37279E-05 -1.37993E-06  2.68904E-03  2.43516E+00  9.13714E-05  9.76889E-06 -3.79667E-06 -7.19603E-07  1.50000E+01
  2.05672E+01  2.02554E+01  1.99764E+01  1.94052E-01  7.73849E-01  5.13474E-03  5.04594E-02  5.32710E-06 -1.54791E-05 -2.50860E-06  2.79683E-03  2.35810E+00  8.52507E-05  9.97215E-06 -3.75279E-06 -1.78972E-06  1.50000E+01
  2.05674E+01  2.02548E+01  2.00039E+01  1.94609E-01  7.74523E-01 -1.49819E-03  5.21232E-02  6.03309E-06 -1.29515E-05  4.81799E-07  2.67887E-03  2.34279E+00  3.18392E-05  9.59595E-06 -3.68433E-06  3.36931E-07  1.50000E+01
  2.08194E+01  2.03034E+01  1.95946E+01  1.47988E-01  1.08510E+00  7.21342E-02 -6.71910E-01 -1.04702E-04 -3.59472E-04 -2.95177E-04  3.53291E-03  3.42236E+00  5.30012E-04  2.70987E-05 -1.44106E-06 -1.06462E-05  1.50000E+01
  2.05527E+01  2.02910E+01  2.01761E+01  1.43750E-01  7.23985E-01 -3.96896E-02 -3.60751E-02 -1.40433E-05 -7.50518E-05  3.73184E-05  2.65505E-03  2.17464E+00 -8.39804E-04  1.50737E-05 -1.82840E-06  1.16358E-05  1.50000E+01
  2.05519E+01  2.02829E+01  2.01502E+01  1.54718E-01  7.30985E-01 -3.51190E-02 -4.57846E-02 -1.08998E-05 -6.62526E-05  2.86540E-05  2.43320E-03  2.17376E+00 -9.28965E-04  1.41978E-05 -2.50590E-06  1.00712E-05  1.50000E+01
  2.03597E+01  2.03300E+01  2.00798E+01  6.94040E-02  4.50861E-01 -2.59590E-02 -2.99883E-02  2.51666E-05  2.74705E-05  1.53657E-06  1.88709E-03  1.49248E+00 -1.05498E-03  1.72153E-05 -3.56849E-06  6.43537E-06  1.50000E+01
  2.04019E+01  2.03586E+01  2.02142E+01  3.96716E-02  4.57836E-01 -5.07577E-02 -2.74334E-01 -1.86136E-05 -1.26888E-04  7.28022E-05  2.28140E-03  1.47924E+00 -2.69066E-03  2.04142E-05  1.12160E-06  1.66988E-05  1.50000E+01
  2.04218E+01  2.03588E+01  2.02284E+01  4.09657E-02  4.82733E-01 -5.13697E-02 -2.59762E-01 -2.44352E-05 -1.38308E-04  8.20810E-05  2.35200E-03  1.55043E+00 -2.73800E-03  2.01723E-05  1.58440E-06  1.71414E-05  1.50000E+01
  2.04212E+01  2.03480E+01  2.02031E+01  5.57739E-02  4.97825E-01 -4.93816E-02 -2.34704E-01 -1.58880E-05 -1.10770E-04  6.26191E-05  2.37017E-03  1.60482E+00 -2.43582E-03  1.96057E-05  5.40194E-07  1.61826E-05  1.50000E+01
  2.01211E+01  2.03911E+01  2.01506E+01 -3.86701E-02  7.33589E-02 -2.91417E-02 -7.40324E-01  1.99657E-05 -2.43575E-04  5.40561E-05 -2.85257E-03  2.88095E-01 -1.14560E-02  3.83407E-05 -2.23814E-06  2.03371E-06  1.50000E+01
  2.01005E+01  2.03941E+01  2.01625E+01 -4.44519E-02 -7.64151E-03 -1.90001E-02 -8.22407E-01  4.43722E-05 -2.49095E-04  4.46873E-05 -1.51733E-02  5.34317E-02 -5.23520E-03  4.39666E-05  9.63347E-07  2.49529E-06  1.50000E+01