 TITLE="3D TRIANGULAR SURFACE DATA"
VARIABLES="X","Y","Z","U","V","W","P", "Fex", "Fey", "Fez","Finx","Finy","Finz","WSSx","WSSy","WSSz","AMForce"
 ZONE T="unstruc"N=        1757 E=        3355 F=FEPOINT  ET=TRIANGLE
  2.03796E+01  2.03878E+01  2.00906E+01 -6.56747E-01  1.22869E-01  2.39916E-02 -9.01254E-01  5.65760E-05 -5.26481E-04  6.26594E-05 -2.92004E-03  5.59952E-01 -6.68792E-03  6.92671E-05 -1.43812E-06  7.04397E-07  1.50000E+01
  2.04023E+01  2.03872E+01  2.00906E+01 -6.58519E-01  1.40341E-01  1.85983E-02 -8.46566E-01  2.39229E-05 -2.48505E-04  3.17646E-05  1.01315E-03  2.83194E-01 -1.92438E-03  3.23308E-05 -9.74986E-07  5.91470E-07  1.50000E+01
  2.03978E+01  2.03851E+01  2.00707E+01 -6.59835E-01  1.48705E-01  1.49590E-02 -8.98080E-01  3.48365E-05 -3.74874E-04  3.71571E-05 -1.35955E-03  4.47072E-01 -9.97501E-04  4.85352E-05 -1.67555E-06  7.08383E-07  1.50000E+01
  2.03758E+01  2.03918E+01  2.01199E+01 -6.53710E-01  8.82061E-02  3.65380E-02 -8.79949E-01  5.46388E-05 -4.34701E-04  6.44390E-05 -3.42226E-03  3.51991E-01 -4.83672E-03  5.76838E-05 -1.84426E-07  6.29992E-07  1.50000E+01
  2.03980E+01  2.03900E+01  2.01103E+01 -6.57071E-01  1.23772E-01  2.49576E-02 -7.25584E-01  3.83042E-05 -3.51297E-04  5.31744E-05 -2.09083E-03  3.75881E-01 -5.65624E-03  4.76002E-05 -1.07195E-06  7.67991E-07  1.50000E+01
  2.04182E+01  2.03881E+01  2.01015E+01 -6.59220E-01  1.42582E-01  1.78184E-02 -8.20423E-01  3.02752E-05 -3.10319E-04  4.56107E-05 -5.86469E-05  3.62606E-01 -1.74333E-03  4.09333E-05 -1.20852E-06  1.07164E-06  1.50000E+01
  2.04182E+01  2.03852E+01  2.00794E+01 -6.60771E-01  1.52984E-01  1.31614E-02 -8.78422E-01  2.97079E-05 -3.18256E-04  3.67421E-05 -2.35158E-04  3.88026E-01 -2.32329E-03  4.15489E-05 -1.42065E-06  1.03537E-06  1.50000E+01
  2.03954E+01  2.03831E+01  2.00458E+01 -6.61049E-01  1.57005E-01  9.68563E-03 -9.21658E-01  3.79052E-05 -4.12699E-04  2.71414E-05 -1.35817E-03  5.09805E-01 -1.24013E-03  5.39079E-05 -2.04248E-06  5.65471E-07  1.50000E+01
  2.03754E+01  2.03850E+01  2.00614E+01 -6.58326E-01  1.38096E-01  1.59062E-02 -9.26615E-01  4.52222E-05 -4.66273E-04  3.90719E-05 -1.73216E-03  5.19583E-01 -4.10122E-03  5.98456E-05 -1.75342E-06  4.60601E-07  1.50000E+01
  2.03736E+01  2.03833E+01  2.00346E+01 -6.59423E-01  1.47888E-01  9.02783E-03 -9.38278E-01  4.12547E-05 -4.42392E-04  2.10894E-05 -1.55059E-03  5.19825E-01 -2.01243E-03  5.70432E-05 -1.97268E-06  2.52847E-07  1.50000E+01
  2.03960E+01  2.03940E+01  2.01348E+01 -6.54611E-01  9.83217E-02  3.46135E-02 -8.84523E-01  4.63457E-05 -3.89506E-04  6.84552E-05 -2.26787E-03  3.33908E-01 -5.78088E-03  5.17131E-05 -4.21423E-07  1.02679E-06  1.50000E+01
  2.04170E+01  2.03917E+01  2.01243E+01 -6.57581E-01  1.27441E-01  2.37961E-02 -8.20561E-01  3.70823E-05 -3.54630E-04  6.18498E-05 -1.62101E-03  3.79592E-01 -3.95770E-03  4.72763E-05 -1.09712E-06  1.12312E-06  1.50000E+01
  2.03316E+01  2.03881E+01  2.00910E+01 -6.49111E-01  3.40820E-02  3.93150E-02 -9.47695E-01  7.08485E-05 -4.80375E-04  4.41881E-05 -1.03858E-02  1.88392E-01 -3.80476E-03  5.92116E-05  1.75748E-06  2.48186E-07  1.50000E+01
  2.03312E+01  2.03859E+01  2.00637E+01 -6.52062E-01  6.62916E-02  2.61562E-02 -9.54263E-01  6.22875E-05 -4.69498E-04  3.20783E-05 -7.26011E-03  2.95599E-01 -3.34862E-03  5.95258E-05  6.37363E-07  7.02383E-09  1.50000E+01
  2.03096E+01  2.03861E+01  2.00775E+01 -6.43657E-01 -1.84229E-02  3.94671E-02 -9.49406E-01  8.35407E-05 -4.55375E-04  2.88430E-05 -1.66735E-02  1.16809E-02 -1.29638E-03  5.81660E-05  3.65444E-06 -6.89713E-08  1.50000E+01
  2.03542E+01  2.03898E+01  2.01048E+01 -6.52134E-01  6.94507E-02  3.77838E-02 -9.10019E-01  6.36930E-05 -4.90060E-04  5.91207E-05 -6.18481E-03  3.22862E-01 -6.45119E-03  6.24210E-05  4.77851E-07  6.28106E-07  1.50000E+01
  2.03317E+01  2.03907E+01  2.01181E+01 -6.44256E-01 -1.31013E-02  5.47452E-02 -9.81078E-01  8.16462E-05 -4.71532E-04  5.10892E-05 -1.47857E-02  2.38436E-02 -2.72130E-03  5.70109E-05  3.39786E-06  8.90767E-07  1.50000E+01
  2.03533E+01  2.03933E+01  2.01320E+01 -6.48090E-01  2.36292E-02  5.26832E-02 -9.14813E-01  6.99952E-05 -4.47527E-04  6.19307E-05 -9.62541E-03  1.40509E-01 -4.92272E-03  5.68901E-05  2.04482E-06  7.31207E-07  1.50000E+01
  2.03540E+01  2.03869E+01  2.00768E+01 -6.54786E-01  1.00469E-01  2.58323E-02 -9.35333E-01  5.67566E-05 -5.01699E-04  4.70025E-05 -3.96225E-03  4.33637E-01 -4.20699E-03  6.34814E-05 -6.19588E-07  3.07612E-07  1.50000E+01
  2.03526E+01  2.03848E+01  2.00493E+01 -6.56449E-01  1.18923E-01  1.60082E-02 -9.50045E-01  4.87804E-05 -4.64638E-04  2.87641E-05 -2.91341E-03  4.58863E-01 -2.99760E-03  5.91676E-05 -1.16594E-06  1.27980E-07  1.50000E+01
  2.04375E+01  2.03858E+01  2.00902E+01 -6.61519E-01  1.54041E-01  1.19636E-02 -8.58597E-01  3.30646E-05 -3.42705E-04  4.61593E-05 -6.63924E-04  4.24966E-01 -1.62447E-03  4.53042E-05 -1.40322E-06  1.62999E-06  1.50000E+01
  2.04372E+01  2.03832E+01  2.00667E+01 -6.63049E-01  1.61233E-01  8.54390E-03 -8.84155E-01  3.48654E-05 -3.60114E-04  3.62239E-05 -8.75466E-04  4.58944E-01 -1.37236E-03  4.82145E-05 -1.66055E-06  1.49649E-06  1.50000E+01
  2.04374E+01  2.03893E+01  2.01135E+01 -6.59843E-01  1.44148E-01  1.61363E-02 -8.37528E-01  3.46705E-05 -3.45799E-04  5.76341E-05 -6.41632E-04  4.11904E-01 -2.17877E-03  4.63275E-05 -1.25529E-06  1.70482E-06  1.50000E+01
  2.04166E+01  2.03831E+01  2.00561E+01 -6.62291E-01  1.60522E-01  9.37576E-03 -8.97932E-01  3.46608E-05 -3.74583E-04  3.09959E-05 -1.47034E-03  4.72343E-01 -1.19836E-03  4.93090E-05 -1.85849E-06  9.93252E-07  1.50000E+01
  2.04365E+01  2.03813E+01  2.00425E+01 -6.64329E-01  1.66228E-01  5.58353E-03 -8.92820E-01  3.74870E-05 -3.83238E-04  2.49568E-05 -1.43140E-03  4.97650E-01 -7.50726E-04  5.20379E-05 -1.92476E-06  1.26763E-06  1.50000E+01
  2.03518E+01  2.03836E+01  2.00224E+01 -6.57424E-01  1.29021E-01  7.39521E-03 -9.56986E-01  4.54765E-05 -4.48155E-04  1.28222E-05 -2.48776E-03  4.74121E-01 -1.57527E-03  5.76486E-05 -1.44326E-06 -1.75878E-08  1.50000E+01
  2.03943E+01  2.03820E+01  2.00201E+01 -6.61817E-01  1.62105E-01  4.56918E-03 -9.29917E-01  3.87804E-05 -4.22367E-04  1.23800E-05 -1.41474E-03  5.33285E-01 -6.86825E-04  5.57825E-05 -2.24440E-06  2.76009E-07  1.50000E+01
  2.03728E+01  2.03826E+01  2.00082E+01 -6.59978E-01  1.52393E-01  2.59633E-03 -9.48281E-01  4.02709E-05 -4.34906E-04  5.04238E-06 -1.56181E-03  5.24384E-01 -6.41508E-04  5.64912E-05 -2.07629E-06  4.14266E-08  1.50000E+01
  2.03316E+01  2.03935E+01  2.01447E+01 -6.36556E-01 -7.55549E-02  7.23196E-02 -9.39746E-01  9.65097E-05 -4.48634E-04  5.02565E-05 -2.14026E-02 -1.82140E-01  6.04073E-04  5.55266E-05  5.47662E-06  4.85343E-07  1.50000E+01
  2.03529E+01  2.03969E+01  2.01581E+01 -6.42081E-01 -3.39349E-02  6.96048E-02 -9.17051E-01  8.52490E-05 -4.27859E-04  6.29979E-05 -1.53087E-02 -4.73183E-02 -2.69653E-03  5.71770E-05  4.16705E-06  1.08065E-06  1.50000E+01
  2.07658E+01  2.04428E+01  1.97095E+01 -6.28567E-01  1.88887E-01  8.54914E-02 -5.78210E-01  7.77011E-05 -2.48403E-04 -1.29378E-04 -1.87498E-03  6.01654E-01  3.19900E-03  5.08790E-05  1.18243E-05 -1.45924E-05  1.50000E+01
  2.07455E+01  2.04356E+01  1.97218E+01 -6.33613E-01  1.89887E-01  7.70595E-02 -5.99601E-01  7.50550E-05 -2.75663E-04 -1.33708E-04 -1.60800E-03  6.03371E-01  2.82306E-03  5.10411E-05  1.04063E-05 -1.45223E-05  1.50000E+01
  2.07662E+01  2.04325E+01  1.97338E+01 -6.32627E-01  2.07565E-01  8.11353E-02 -5.16662E-01  7.33956E-05 -2.42516E-04 -1.20030E-04 -1.59417E-03  6.59551E-01  2.89678E-03  5.03351E-05  1.06560E-05 -1.46769E-05  1.50000E+01
  2.07458E+01  2.04258E+01  1.97463E+01 -6.37218E-01  2.06897E-01  7.26766E-02 -5.88399E-01  7.11294E-05 -2.68707E-04 -1.23642E-04 -1.40360E-03  6.56241E-01  2.56333E-03  5.14456E-05  9.58773E-06 -1.50879E-05  1.50000E+01
  2.07664E+01  2.04227E+01  1.97583E+01 -6.36017E-01  2.23630E-01  7.58296E-02 -4.87668E-01  6.95947E-05 -2.32923E-04 -1.09050E-04 -1.36977E-03  7.09152E-01  2.54430E-03  5.10272E-05  9.74110E-06 -1.50523E-05  1.50000E+01
  2.08261E+01  2.04681E+01  1.96739E+01 -6.09027E-01  1.70351E-01  1.05572E-01 -3.05714E-01  6.37313E-05 -5.97882E-05 -5.40256E-05 -2.63932E-03  5.45557E-01  3.66545E-03  5.11583E-05  1.61786E-05 -1.47992E-05  1.50000E+01
  2.08061E+01  2.04591E+01  1.96855E+01 -6.16388E-01  1.79328E-01  9.99393E-02 -4.06707E-01  7.46589E-05 -1.55294E-04 -9.83658E-05 -2.37990E-03  5.73365E-01  3.62449E-03  5.00248E-05  1.45731E-05 -1.47009E-05  1.50000E+01
  2.08267E+01  2.04561E+01  1.96978E+01 -6.15282E-01  1.95688E-01  1.02716E-01 -2.61693E-01  6.40409E-05 -6.38413E-05 -5.43249E-05 -2.24905E-03  6.24742E-01  3.33962E-03  5.25353E-05  1.54037E-05 -1.53011E-05  1.50000E+01
  2.04370E+01  2.03934E+01  2.01371E+01 -6.57940E-01  1.30638E-01  2.13556E-02 -8.64051E-01  3.82111E-05 -3.61820E-04  7.10053E-05 -1.10571E-03  3.96901E-01 -3.75973E-03  4.90265E-05 -1.04719E-06  1.82110E-06  1.50000E+01
  2.08273E+01  2.04446E+01  1.97219E+01 -6.20412E-01  2.17551E-01  9.83914E-02 -2.54175E-01  6.65582E-05 -9.05990E-05 -6.43635E-05 -1.90188E-03  6.92936E-01  2.97676E-03  5.33277E-05  1.42854E-05 -1.54290E-05  1.50000E+01
  2.08474E+01  2.04531E+01  1.97102E+01 -6.13974E-01  2.10957E-01  1.04614E-01 -8.39223E-02  6.01802E-05 -2.81805E-05 -3.69581E-05 -2.11882E-03  6.72814E-01  3.09980E-03  5.35496E-05  1.56666E-05 -1.53555E-05  1.50000E+01
  2.04570E+01  2.03798E+01  2.00292E+01 -6.65927E-01  1.68979E-01  3.00487E-03 -8.81301E-01  3.89932E-05 -3.83371E-04  1.76577E-05 -1.44993E-03  5.08008E-01 -4.09828E-04  5.30295E-05 -1.85089E-06  1.22685E-06  1.50000E+01
  2.04361E+01  2.03802E+01  2.00176E+01 -6.65077E-01  1.69047E-01  2.73420E-03 -8.99032E-01  3.91138E-05 -3.96014E-04  1.08284E-05 -1.55580E-03  5.18883E-01 -2.89759E-04  5.45208E-05 -2.10123E-06  5.95540E-07  1.50000E+01
  2.03744E+01  2.03959E+01  2.01460E+01 -6.50258E-01  4.76471E-02  4.99809E-02 -9.01023E-01  6.09669E-05 -4.18440E-04  7.04115E-05 -6.04727E-03  2.02485E-01 -5.57109E-03  5.51849E-05  1.19050E-06  1.00700E-06  1.50000E+01
  2.03740E+01  2.04001E+01  2.01713E+01 -6.45478E-01 -2.84309E-03  6.56273E-02 -9.13155E-01  7.56411E-05 -4.13399E-04  7.47960E-05 -1.08035E-02  4.76762E-02 -5.21676E-03  5.70648E-05  3.16831E-06  2.13293E-06  1.50000E+01
  2.03952E+01  2.03985E+01  2.01596E+01 -6.51606E-01  6.47516E-02  4.63316E-02 -8.99341E-01  5.81419E-05 -3.99404E-04  7.92530E-05 -4.05546E-03  2.41315E-01 -6.72058E-03  5.69093E-05  8.48944E-07  2.33029E-06  1.50000E+01
  2.03513E+01  2.03833E+01  1.99960E+01 -6.57746E-01  1.31480E-01 -6.78141E-04 -9.60859E-01  4.43260E-05 -4.37329E-04 -2.15702E-06 -2.40069E-03  4.72219E-01 -3.49090E-05  5.67128E-05 -1.48574E-06 -6.62513E-08  1.50000E+01
  2.03938E+01  2.03817E+01  1.99943E+01 -6.62030E-01  1.63345E-01 -3.83666E-04 -9.33399E-01  3.90071E-05 -4.21423E-04 -3.41820E-06 -1.45568E-03  5.36399E-01  1.52133E-04  5.59781E-05 -2.27939E-06 -1.21269E-07  1.50000E+01
  2.03724E+01  2.03828E+01  1.99822E+01 -6.59919E-01  1.51365E-01 -3.71555E-03 -9.47338E-01  4.01074E-05 -4.26699E-04 -1.03798E-05 -1.53755E-03  5.14997E-01  7.08286E-04  5.57377E-05 -2.01599E-06 -1.66968E-07  1.50000E+01
  2.07873E+01  2.04107E+01  1.97953E+01 -6.37177E-01  2.51381E-01  7.06538E-02 -3.46989E-01  6.33825E-05 -1.84763E-04 -7.89046E-05 -1.10615E-03  7.95171E-01  1.94682E-03  5.03679E-05  7.68679E-06 -1.21620E-05  1.50000E+01
  2.08077E+01  2.04168E+01  1.97828E+01 -6.32798E-01  2.52478E-01  7.84031E-02 -2.82497E-01  6.74472E-05 -1.65347E-04 -7.85976E-05 -1.19966E-03  7.99996E-01  2.05126E-03  5.27030E-05  9.45600E-06 -1.30901E-05  1.50000E+01
  2.07871E+01  2.04197E+01  1.97705E+01 -6.34532E-01  2.38810E-01  7.76886E-02 -3.64180E-01  6.69720E-05 -1.94276E-04 -9.16813E-05 -1.29708E-03  7.56868E-01  2.34934E-03  5.05709E-05  9.40166E-06 -1.38211E-05  1.50000E+01
  2.04576E+01  2.03868E+01  2.01019E+01 -6.62010E-01  1.54175E-01  1.02650E-02 -8.58834E-01  3.56075E-05 -3.56164E-04  5.49425E-05 -8.77487E-04  4.48154E-01 -1.53793E-03  4.77787E-05 -1.27372E-06  2.36693E-06  1.50000E+01
  2.01065E+01  2.02192E+01  2.01913E+01 -4.87880E-02 -1.12520E+00 -9.67492E-04 -9.14626E-01  2.78440E-04 -1.31902E-04 -1.43538E-04  4.58796E-03 -3.53427E+00 -6.31822E-04  4.45953E-05  5.53356E-05  1.72974E-06  1.50000E+01
  2.00970E+01  2.01981E+01  2.02018E+01 -3.66855E-02 -1.13825E+00 -3.86507E-04 -1.12813E+00  3.83773E-04 -1.95480E-04 -2.23722E-04  2.86217E-03 -3.57381E+00  4.88163E-04  4.99018E-05  6.23526E-05  2.15647E-06  1.50000E+01
  2.01145E+01  2.02095E+01  2.02147E+01 -4.30327E-02 -1.12821E+00 -5.16382E-04 -6.27242E-01  3.28296E-04 -1.47620E-04 -1.85451E-04  3.67403E-03 -3.55205E+00  2.17286E-04  5.09260E-05  6.27845E-05  4.33514E-06  1.50000E+01
  2.08483E+01  2.04308E+01  1.97585E+01 -6.22857E-01  2.49464E-01  9.31857E-02 -9.86681E-02  6.63305E-05 -9.89179E-05 -6.17086E-05 -1.47437E-03  7.92772E-01  2.32948E-03  5.29731E-05  1.23753E-05 -1.37261E-05  1.50000E+01
  2.08685E+01  2.04387E+01  1.97468E+01 -6.17173E-01  2.45141E-01  1.00009E-01 -1.32986E-01  3.43764E-05 -4.69814E-05 -3.17132E-05  6.44970E-03  3.99113E-01  8.61944E-03  2.70650E-05  6.90009E-06 -7.07979E-06  1.50000E+01
  2.08479E+01  2.04416E+01  1.97343E+01 -6.18868E-01  2.31827E-01  9.95700E-02 -8.79881E-02  6.54787E-05 -7.24902E-05 -5.51838E-05 -1.77917E-03  7.37941E-01  2.73285E-03  5.40262E-05  1.42686E-05 -1.49183E-05  1.50000E+01
  2.07868E+01  2.04294E+01  1.97459E+01 -6.31349E-01  2.23777E-01  8.38768E-02 -5.56539E-01  7.15875E-05 -2.12833E-04 -1.07451E-04 -1.52931E-03  7.10662E-01  2.75446E-03  5.00281E-05  1.08904E-05 -1.47916E-05  1.50000E+01
  2.08074E+01  2.04264E+01  1.97582E+01 -6.29805E-01  2.38488E-01  8.54181E-02 -3.35186E-01  7.18549E-05 -1.80876E-04 -9.34050E-05 -1.43105E-03  7.57023E-01  2.48094E-03  5.21070E-05  1.10122E-05 -1.42576E-05  1.50000E+01
  2.03510E+01  2.03839E+01  1.99700E+01 -6.57396E-01  1.26319E-01 -8.78208E-03 -9.58051E-01  4.44731E-05 -4.27296E-04 -1.61507E-05 -2.58194E-03  4.50574E-01  1.60647E-03  5.55116E-05 -1.29812E-06 -1.18184E-07  1.50000E+01
  2.03305E+01  2.03844E+01  2.00366E+01 -6.53826E-01  8.56870E-02  1.47047E-02 -9.61422E-01  5.64739E-05 -4.55695E-04  1.84761E-05 -5.67133E-03  3.50667E-01 -2.26470E-03  5.85489E-05 -1.89530E-08 -9.15532E-08  1.50000E+01
  2.03301E+01  2.03838E+01  2.00098E+01 -6.54696E-01  9.42573E-02  4.27641E-03 -9.69825E-01  5.35510E-05 -4.44312E-04  4.96111E-06 -5.11182E-03  3.70700E-01 -8.63088E-04  5.76036E-05 -2.90379E-07 -6.67279E-08  1.50000E+01
  2.08055E+01  2.04710E+01  1.96616E+01 -6.09875E-01  1.53087E-01  1.02169E-01 -4.05164E-01  7.56107E-05 -1.47487E-04 -9.69217E-05 -2.76312E-03  4.91289E-01  3.92252E-03  4.96416E-05  1.53311E-05 -1.39332E-05  1.50000E+01
  2.07460E+01  2.04167E+01  1.97709E+01 -6.40256E-01  2.21562E-01  6.74717E-02 -5.01559E-01  6.75283E-05 -2.64842E-04 -1.12570E-04 -1.23336E-03  7.01255E-01  2.26194E-03  5.11540E-05  8.09141E-06 -1.39438E-05  1.50000E+01
  2.07666E+01  2.04136E+01  1.97830E+01 -6.38851E-01  2.37263E-01  6.96768E-02 -3.82514E-01  6.57990E-05 -2.18146E-04 -9.36874E-05 -1.18197E-03  7.50739E-01  2.16654E-03  5.11847E-05  8.01490E-06 -1.32800E-05  1.50000E+01
  2.03092E+01  2.03847E+01  2.00505E+01 -6.47355E-01  1.40157E-02  2.49322E-02 -9.62245E-01  7.51827E-05 -4.50621E-04  2.00841E-05 -1.31937E-02  1.21197E-01 -1.69315E-03  5.87459E-05  2.53750E-06 -6.71537E-08  1.50000E+01
  2.02875E+01  2.03829E+01  2.00375E+01 -6.38401E-01 -6.19271E-02  2.16734E-02 -9.61664E-01  9.58246E-05 -4.32822E-04  1.02934E-05 -2.22373E-02 -1.27288E-01  3.08728E-04  6.01546E-05  5.51514E-06 -6.99731E-08  1.50000E+01
  2.02879E+01  2.03838E+01  2.00643E+01 -6.33707E-01 -9.21564E-02  3.75602E-02 -9.53830E-01  1.03711E-04 -4.34571E-04  1.60879E-05 -2.54670E-02 -2.31286E-01  1.60982E-03  5.96415E-05  6.60802E-06 -2.23617E-08  1.50000E+01
  2.04575E+01  2.03836E+01  2.00780E+01 -6.63607E-01  1.60990E-01  7.43997E-03 -8.65262E-01  3.64464E-05 -3.61433E-04  4.33150E-05 -9.97138E-04  4.66561E-01 -1.10554E-03  4.89918E-05 -1.46379E-06  2.21168E-06  1.50000E+01
  2.04573E+01  2.03813E+01  2.00538E+01 -6.64955E-01  1.65875E-01  5.07885E-03 -8.72729E-01  3.82927E-05 -3.72924E-04  3.13764E-05 -1.20829E-03  4.89316E-01 -8.05006E-04  5.13376E-05 -1.67516E-06  1.99198E-06  1.50000E+01
  2.04776E+01  2.03787E+01  2.00163E+01 -6.67048E-01  1.70897E-01  1.37664E-03 -8.60594E-01  3.87689E-05 -3.78209E-04  9.80075E-06 -1.41838E-03  5.14455E-01 -1.96348E-04  5.19187E-05 -1.69697E-06  8.32124E-07  1.50000E+01
  2.04568E+01  2.03792E+01  2.00044E+01 -6.66382E-01  1.70308E-01  1.02660E-03 -8.83293E-01  3.87591E-05 -3.89297E-04  2.57846E-06 -1.51280E-03  5.18292E-01 -4.80898E-05  5.34278E-05 -1.91977E-06  1.15913E-07  1.50000E+01
  2.08071E+01  2.04367E+01  1.97338E+01 -6.26176E-01  2.21794E-01  9.14417E-02 -3.16479E-01  7.33788E-05 -1.73148E-04 -9.71398E-05 -1.72014E-03  7.05496E-01  2.88527E-03  5.22000E-05  1.26204E-05 -1.50913E-05  1.50000E+01
  2.08067E+01  2.04477E+01  1.97096E+01 -6.21759E-01  2.02153E-01  9.63272E-02 -5.15659E-01  7.45150E-05 -1.63714E-04 -9.86319E-05 -2.03268E-03  6.44609E-01  3.27756E-03  5.16896E-05  1.39741E-05 -1.54920E-05  1.50000E+01
  2.07251E+01  2.04291E+01  1.97343E+01 -6.38123E-01  1.88842E-01  6.81636E-02 -6.99200E-01  7.21423E-05 -3.10791E-04 -1.39938E-04 -1.40606E-03  5.98586E-01  2.38041E-03  5.08827E-05  9.04449E-06 -1.45148E-05  1.50000E+01
  2.03102E+01  2.03900E+01  2.01313E+01 -6.27477E-01 -1.31491E-01  7.33757E-02 -8.75705E-01  1.10418E-04 -4.37636E-04  3.40425E-05 -2.87722E-02 -3.68395E-01  4.82876E-03  5.52959E-05  7.51060E-06  4.80824E-07  1.50000E+01
  2.02894E+01  2.03868E+01  2.01447E+01 -5.93266E-01 -2.85591E-01  8.90512E-02 -9.20311E-01  1.53699E-04 -4.18558E-04  9.16111E-06 -4.21299E-02 -8.87189E-01  1.55955E-02  5.57741E-05  1.34669E-05 -7.36932E-07  1.50000E+01
  2.03105E+01  2.03918E+01  2.01577E+01 -6.11820E-01 -2.12628E-01  9.16512E-02 -9.65101E-01  1.35623E-04 -4.38223E-04  2.72324E-05 -3.68560E-02 -6.34356E-01  1.13345E-02  5.55858E-05  1.05480E-05 -4.74086E-07  1.50000E+01
  2.08277E+01  2.04337E+01  1.97461E+01 -6.24609E-01  2.36189E-01  9.27468E-02 -1.61763E-01  6.85902E-05 -1.20002E-04 -7.25772E-05 -1.59358E-03  7.50804E-01  2.58081E-03  5.31248E-05  1.26203E-05 -1.45356E-05  1.50000E+01
  2.07451E+01  2.04459E+01  1.96975E+01 -6.29335E-01  1.70402E-01  8.05608E-02 -6.74557E-01  8.12113E-05 -2.94339E-04 -1.48789E-04 -1.86344E-03  5.42640E-01  3.04071E-03  5.11442E-05  1.15004E-05 -1.45848E-05  1.50000E+01
  2.07248E+01  2.04389E+01  1.97099E+01 -6.34309E-01  1.71099E-01  7.16211E-02 -6.74938E-01  7.48386E-05 -3.10258E-04 -1.47294E-04 -1.58504E-03  5.43106E-01  2.53213E-03  5.02089E-05  9.85841E-06 -1.42564E-05  1.50000E+01
  2.03950E+01  2.04033E+01  2.01843E+01 -6.47619E-01  2.10240E-02  6.06406E-02 -9.12228E-01  6.80263E-05 -4.05120E-04  8.57339E-05 -7.69187E-03  1.16384E-01 -7.17790E-03  5.65194E-05  2.42946E-06  3.03644E-06  1.50000E+01
  2.04160E+01  2.04011E+01  2.01726E+01 -6.52453E-01  7.77352E-02  4.19823E-02 -8.94032E-01  5.52046E-05 -3.89188E-04  8.81458E-05 -2.86805E-03  2.72774E-01 -7.20562E-03  5.71322E-05  6.30110E-07  3.60517E-06  1.50000E+01
  2.03739E+01  2.04044E+01  2.01965E+01 -6.38019E-01 -6.70043E-02  8.39136E-02 -9.31334E-01  8.99770E-05 -4.18506E-04  7.45672E-05 -1.81140E-02 -1.48031E-01 -2.18489E-03  5.53823E-05  5.37771E-06  2.36868E-06  1.50000E+01
  2.03935E+01  2.03824E+01  1.99687E+01 -6.61635E-01  1.60485E-01 -5.41970E-03 -9.28703E-01  3.85581E-05 -4.15962E-04 -1.88525E-05 -1.33532E-03  5.26179E-01  1.18327E-03  5.49503E-05 -2.15193E-06 -4.97112E-07  1.50000E+01
  2.07860E+01  2.04507E+01  1.96974E+01 -6.22863E-01  1.85456E-01  9.31932E-02 -4.60416E-01  7.76261E-05 -2.08488E-04 -1.18118E-04 -2.12151E-03  5.92001E-01  3.47697E-03  4.99814E-05  1.31656E-05 -1.46915E-05  1.50000E+01
  2.07855E+01  2.04620E+01  1.96733E+01 -6.17252E-01  1.61745E-01  9.61113E-02 -4.67599E-01  7.94084E-05 -1.96215E-04 -1.16359E-04 -2.45570E-03  5.17826E-01  3.77247E-03  4.98361E-05  1.39356E-05 -1.39035E-05  1.50000E+01
  2.07654E+01  2.04537E+01  1.96853E+01 -6.23692E-01  1.67422E-01  8.88275E-02 -5.65522E-01  8.18325E-05 -2.46106E-04 -1.33776E-04 -2.14824E-03  5.34722E-01  3.47815E-03  5.09005E-05  1.27440E-05 -1.41826E-05  1.50000E+01
  2.07044E+01  2.04324E+01  1.97224E+01 -6.38739E-01  1.70023E-01  6.23330E-02 -7.37950E-01  7.10896E-05 -3.45440E-04 -1.53717E-04 -1.39657E-03  5.38092E-01  2.02082E-03  5.04960E-05  8.62704E-06 -1.43902E-05  1.50000E+01
  2.04782E+01  2.03880E+01  2.01140E+01 -6.62197E-01  1.54143E-01  7.99130E-03 -8.39599E-01  3.76028E-05 -3.48827E-04  6.06900E-05 -9.86586E-04  4.57983E-01 -1.45599E-03  4.89145E-05 -1.04512E-06  3.15223E-06  1.50000E+01
  2.04576E+01  2.03907E+01  2.01257E+01 -6.60198E-01  1.45039E-01  1.37466E-02 -8.34536E-01  3.69183E-05 -3.52199E-04  6.56868E-05 -8.54934E-04  4.31890E-01 -2.29835E-03  4.85111E-05 -1.14015E-06  2.34758E-06  1.50000E+01
  2.03099E+01  2.03880E+01  2.01045E+01 -6.37470E-01 -6.66373E-02  5.56753E-02 -9.44181E-01  9.43823E-05 -4.51570E-04  3.42378E-05 -2.19351E-02 -1.52291E-01  7.26307E-04  5.61459E-05  5.23285E-06  2.39811E-07  1.50000E+01
  2.02883E+01  2.03848E+01  2.00912E+01 -6.25654E-01 -1.39495E-01  5.44384E-02 -9.37111E-01  1.14712E-04 -4.30896E-04  1.87316E-05 -3.03606E-02 -3.93983E-01  4.47086E-03  5.78742E-05  8.16467E-06 -1.07979E-07  1.50000E+01
  2.01053E+01  2.01878E+01  2.02248E+01 -3.25971E-02 -1.14117E+00  0.00000E+00 -4.23898E-01  2.06874E-04 -1.01562E-04 -1.22108E-04  5.01514E-02  2.99048E+01 -3.07167E+01  2.76923E-05  3.31026E-05  3.25326E-06  1.50000E+01
  2.08673E+01  2.04621E+01  1.96988E+01 -6.06772E-01  2.01895E-01  1.10008E-01 -6.86689E-02  2.91818E-05 -5.23289E-06 -1.48160E-05  7.07651E-03  3.28845E-01  8.98155E-03  2.68731E-05  8.43254E-06 -7.75566E-06  1.50000E+01
  2.08467E+01  2.04651E+01  1.96863E+01 -6.07981E-01  1.86582E-01  1.08142E-01 -5.99259E-02  5.67680E-05  3.20229E-06 -2.33018E-05 -2.50725E-03  5.96595E-01  3.42787E-03  5.40889E-05  1.72448E-05 -1.57890E-05  1.50000E+01
  2.07244E+01  2.04491E+01  1.96856E+01 -6.29829E-01  1.51107E-01  7.43001E-02 -6.99483E-01  7.88871E-05 -3.11702E-04 -1.54305E-04 -1.81192E-03  4.80508E-01  2.65988E-03  4.94800E-05  1.04263E-05 -1.35357E-05  1.50000E+01
  2.07041E+01  2.04422E+01  1.96981E+01 -6.34736E-01  1.51904E-01  6.49057E-02 -7.19585E-01  7.40857E-05 -3.34042E-04 -1.56415E-04 -1.56265E-03  4.81235E-01  2.10200E-03  5.06834E-05  9.29399E-06 -1.39044E-05  1.50000E+01
  2.03298E+01  2.03839E+01  1.99835E+01 -6.54724E-01  9.26396E-02 -5.80270E-03 -9.72730E-01  5.30849E-05 -4.33770E-04 -7.97108E-06 -5.25558E-03  3.59880E-01  7.42064E-04  5.66637E-05 -2.29765E-07 -1.89237E-08  1.50000E+01
  2.04576E+01  2.03953E+01  2.01497E+01 -6.58127E-01  1.32891E-01  1.81772E-02 -8.59117E-01  4.12652E-05 -3.63727E-04  7.97969E-05 -9.71582E-04  4.08026E-01 -3.53362E-03  5.22569E-05 -7.91376E-07  3.33047E-06  1.50000E+01
  2.03317E+01  2.03962E+01  2.01707E+01 -6.24315E-01 -1.53041E-01  9.12160E-02 -9.08129E-01  1.18579E-04 -4.29963E-04  4.44414E-05 -3.01673E-02 -4.29941E-01  6.40697E-03  5.63392E-05  8.42696E-06  2.12611E-07  1.50000E+01
  2.03529E+01  2.04004E+01  2.01837E+01 -6.32572E-01 -1.05287E-01  8.84490E-02 -9.28469E-01  1.06272E-04 -4.22945E-04  6.11057E-05 -2.36536E-02 -2.70605E-01  1.78372E-03  5.92524E-05  7.18867E-06  1.99307E-06  1.50000E+01
  2.01164E+01  2.02398E+01  2.01803E+01 -6.44809E-02 -1.10976E+00 -1.13322E-03 -9.61443E-01  2.80684E-04 -1.45593E-04 -1.33015E-04  6.51218E-03 -3.49696E+00 -1.47363E-03  4.13638E-05  4.81647E-05  4.06037E-06  1.50000E+01
  2.00995E+01  2.02279E+01  2.01672E+01 -5.55206E-02 -1.12253E+00 -1.06386E-03 -1.07449E+00  2.56075E-04 -1.18861E-04 -1.11750E-04  4.90059E-03 -3.51411E+00 -8.57349E-04  4.45079E-05  5.35228E-05  2.11188E-06  1.50000E+01
  2.07848E+01  2.04737E+01  1.96494E+01 -6.10497E-01  1.34720E-01  9.77715E-02 -4.20423E-01  8.03448E-05 -1.78813E-04 -1.09971E-04 -2.82080E-03  4.33131E-01  4.02346E-03  4.93465E-05  1.44677E-05 -1.28788E-05  1.50000E+01
  2.02662E+01  2.03802E+01  2.00246E+01 -6.21365E-01 -1.64480E-01  1.59607E-02 -9.66214E-01  1.23631E-04 -4.11508E-04  3.23674E-06 -3.26674E-02 -4.67100E-01  1.60445E-03  6.14467E-05  9.62923E-06 -7.19349E-08  1.50000E+01
  2.02665E+01  2.03805E+01  2.00513E+01 -6.15902E-01 -1.89578E-01  3.29836E-02 -9.54031E-01  1.31268E-04 -4.15810E-04  5.91169E-06 -3.48805E-02 -5.55756E-01  3.97945E-03  6.17415E-05  1.07198E-05 -3.03319E-09  1.50000E+01
  2.04781E+01  2.03844E+01  2.00898E+01 -6.63874E-01  1.60747E-01  5.80068E-03 -8.49159E-01  3.79010E-05 -3.59858E-04  5.02619E-05 -1.06165E-03  4.73948E-01 -1.02127E-03  4.95720E-05 -1.22062E-06  3.00099E-06  1.50000E+01
  2.04780E+01  2.03816E+01  2.00655E+01 -6.65290E-01  1.65667E-01  4.05424E-03 -8.55360E-01  3.96793E-05 -3.65920E-04  3.78853E-05 -1.18115E-03  4.89530E-01 -7.26833E-04  5.16626E-05 -1.44049E-06  2.69966E-06  1.50000E+01
  2.02902E+01  2.03871E+01  2.01712E+01 -5.64679E-01 -3.81667E-01  1.03845E-01 -9.28823E-01  1.89072E-04 -4.30221E-04 -5.44370E-06 -4.50819E-02 -1.21202E+00  2.29356E-02  5.65425E-05  1.76451E-05 -1.43068E-06  1.50000E+01
  2.02712E+01  2.03791E+01  2.01848E+01 -4.90986E-01 -5.61932E-01  1.01884E-01 -9.71182E-01  2.49746E-04 -4.07680E-04 -4.69584E-05 -3.44788E-02 -1.83374E+00  2.56286E-02  5.85891E-05  2.69946E-05 -1.81778E-06  1.50000E+01
  2.02915E+01  2.03865E+01  2.01975E+01 -5.25127E-01 -4.88366E-01  1.13724E-01 -9.13127E-01  2.22757E-04 -4.14936E-04 -2.75915E-05 -4.20989E-02 -1.57479E+00  2.86478E-02  5.68978E-05  2.27144E-05 -1.85490E-06  1.50000E+01
  2.06836E+01  2.04359E+01  1.97107E+01 -6.39080E-01  1.51267E-01  5.53225E-02 -7.45528E-01  6.86698E-05 -3.53600E-04 -1.56651E-04 -1.41334E-03  4.77738E-01  1.61782E-03  5.12461E-05  7.92662E-06 -1.36396E-05  1.50000E+01
  2.03088E+01  2.03838E+01  2.00237E+01 -6.49368E-01  3.20110E-02  1.17097E-02 -9.67575E-01  7.00762E-05 -4.43556E-04  9.61793E-06 -1.13880E-02  1.79071E-01 -1.10247E-03  5.85560E-05  1.90483E-06 -1.03238E-07  1.50000E+01
  2.03085E+01  2.03836E+01  1.99972E+01 -6.50044E-01  3.66478E-02 -8.11593E-04 -9.69675E-01  6.80121E-05 -4.34197E-04 -1.14519E-06 -1.10107E-02  1.91784E-01 -9.39695E-05  5.79151E-05  1.72758E-06 -2.74091E-08  1.50000E+01
  2.04778E+01  2.03797E+01  2.00410E+01 -6.66378E-01  1.69039E-01  2.62311E-03 -8.57818E-01  4.02034E-05 -3.72661E-04  2.45608E-05 -1.31081E-03  5.03932E-01 -4.74974E-04  5.28698E-05 -1.61537E-06  2.14256E-06  1.50000E+01
  2.07648E+01  2.04649E+01  1.96613E+01 -6.17855E-01  1.42996E-01  9.10890E-02 -5.66603E-01  8.39972E-05 -2.32132E-04 -1.30883E-04 -2.45888E-03  4.58076E-01  3.70400E-03  5.05866E-05  1.33275E-05 -1.31991E-05  1.50000E+01
  2.07447E+01  2.04567E+01  1.96733E+01 -6.24246E-01  1.48315E-01  8.31530E-02 -6.30349E-01  8.42621E-05 -2.85229E-04 -1.49366E-04 -2.10956E-03  4.73457E-01  3.23747E-03  5.08708E-05  1.20293E-05 -1.35374E-05  1.50000E+01
  2.02888E+01  2.03859E+01  2.01180E+01 -6.12832E-01 -2.04184E-01  7.19590E-02 -9.10444E-01  1.28156E-04 -4.15610E-04  1.63597E-05 -3.64008E-02 -6.13304E-01  9.16779E-03  5.52638E-05  1.01953E-05 -4.24754E-07  1.50000E+01
  2.02676E+01  2.03813E+01  2.01049E+01 -5.90102E-01 -2.94053E-01  6.72406E-02 -9.52821E-01  1.58857E-04 -4.11371E-04  1.17515E-06 -4.17427E-02 -9.18800E-01  1.22911E-02  6.02033E-05  1.48242E-05 -9.92353E-07  1.50000E+01
  2.05189E+01  2.03773E+01  1.99904E+01 -6.67910E-01  1.76407E-01  5.48253E-04 -8.12733E-01  3.95858E-05 -3.63219E-04 -5.85935E-06 -1.32722E-03  5.35265E-01  2.02683E-05  5.04597E-05 -1.40646E-06 -6.00760E-07  1.50000E+01
  2.04981E+01  2.03782E+01  1.99783E+01 -6.67640E-01  1.72712E-01  9.64944E-05 -8.37696E-01  3.97362E-05 -3.73270E-04 -1.33820E-05 -1.39947E-03  5.25699E-01  1.40600E-04  5.17282E-05 -1.52759E-06 -1.33702E-06  1.50000E+01
  2.04983E+01  2.03778E+01  2.00034E+01 -6.67702E-01  1.73188E-01  5.74204E-04 -8.37853E-01  3.89362E-05 -3.71307E-04  1.88759E-06 -1.37612E-03  5.23204E-01 -6.86943E-05  5.08276E-05 -1.54485E-06  1.61444E-07  1.50000E+01
  2.07642E+01  2.04764E+01  1.96373E+01 -6.10887E-01  1.15428E-01  9.22536E-02 -5.34114E-01  8.53757E-05 -2.16310E-04 -1.25368E-04 -2.80401E-03  3.71458E-01  3.91674E-03  5.02101E-05  1.37757E-05 -1.20533E-05  1.50000E+01
  2.04782E+01  2.03975E+01  2.01624E+01 -6.58086E-01  1.34451E-01  1.44549E-02 -8.55423E-01  4.38227E-05 -3.62970E-04  8.78162E-05 -9.71361E-04  4.13594E-01 -3.16696E-03  5.48127E-05 -4.12690E-07  4.96593E-06  1.50000E+01
  2.04782E+01  2.03924E+01  2.01382E+01 -6.60271E-01  1.45552E-01  1.07941E-02 -8.29535E-01  3.85957E-05 -3.45138E-04  7.16458E-05 -9.53038E-04  4.39041E-01 -2.12397E-03  4.94597E-05 -9.06738E-07  3.12172E-06  1.50000E+01
  2.02670E+01  2.03809E+01  2.00781E+01 -6.05908E-01 -2.32912E-01  5.02456E-02 -9.61603E-01  1.43285E-04 -4.15544E-04  6.02305E-06 -3.81657E-02 -7.07206E-01  7.48180E-03  6.16832E-05  1.25429E-05  1.06081E-07  1.50000E+01
  2.03120E+01  2.03935E+01  2.02101E+01 -5.53107E-01 -4.18954E-01  1.21916E-01 -9.72903E-01  1.97970E-04 -4.09714E-04 -7.29636E-06 -4.57257E-02 -1.32710E+00  2.87335E-02  5.70741E-05  1.95556E-05 -2.09280E-06  1.50000E+01
  2.03326E+01  2.03999E+01  2.02225E+01 -5.75287E-01 -3.55230E-01  1.26319E-01 -9.63453E-01  1.79333E-04 -4.18318E-04  1.35040E-05 -4.57066E-02 -1.10023E+00  2.61835E-02  5.94218E-05  1.74277E-05 -7.17338E-07  1.50000E+01
  2.03320E+01  2.03985E+01  2.01966E+01 -6.04906E-01 -2.46582E-01  1.10085E-01 -9.32298E-01  1.47176E-04 -4.24018E-04  3.29333E-05 -3.93065E-02 -7.35951E-01  1.54209E-02  5.88979E-05  1.25751E-05 -4.14246E-07  1.50000E+01
  2.00828E+01  2.02157E+01  2.01541E+01 -4.69716E-02 -1.13492E+00 -9.62404E-04 -1.14981E+00  2.27880E-04 -9.47565E-05 -9.01545E-05  3.54427E-03 -3.51837E+00 -4.61640E-04  4.41189E-05  5.35813E-05  1.60697E-06  1.50000E+01
  2.00725E+01  2.01957E+01  2.01653E+01 -3.44140E-02 -1.14737E+00 -7.01663E-04 -1.11087E+00  2.42858E-04 -9.90338E-05 -1.09487E-04  2.61766E-03 -3.52927E+00 -7.56133E-05  4.74144E-05  5.89915E-05  2.07038E-07  1.50000E+01