 TITLE="3D TRIANGULAR SURFACE DATA"
VARIABLES="X","Y","Z","U","V","W","P", "Fex", "Fey", "Fez","Finx","Finy","Finz","WSSx","WSSy","WSSz","AMForce"
 ZONE T="unstruc"N=        1757 E=        3355 F=FEPOINT  ET=TRIANGLE
  2.04104E+01  1.96649E+01  2.00904E+01 -5.14264E-01 -1.13318E-01  2.29671E-02  2.71611E-01  3.40247E-05  2.59474E-04  2.90183E-05  9.21946E-04 -5.07431E-01 -5.07852E-03  6.40825E-05  7.44749E-06 -1.95889E-07  1.50000E+01
  2.04330E+01  1.96676E+01  2.00904E+01 -5.14742E-01 -1.28418E-01  1.83595E-02  2.65037E-01  1.44617E-05  1.14070E-04  1.35648E-05  1.60900E-03 -2.57306E-01 -1.38366E-03  2.84827E-05  3.55893E-06  3.70431E-08  1.50000E+01
  2.04283E+01  1.96692E+01  2.00706E+01 -5.15428E-01 -1.34923E-01  1.48011E-02  2.83287E-01  2.01224E-05  1.80243E-04  1.69162E-05  8.80949E-05 -4.02622E-01 -3.84355E-04  4.27630E-05  5.43541E-06  3.67647E-07  1.50000E+01
  2.04069E+01  1.96607E+01  2.01196E+01 -5.13755E-01 -8.59802E-02  3.42012E-02  2.72561E-01  3.78317E-05  2.28520E-04  3.41996E-05  6.16067E-04 -3.33281E-01 -3.61632E-03  6.07396E-05  5.98689E-06  1.69339E-06  1.50000E+01
  2.04290E+01  1.96645E+01  2.01101E+01 -5.14425E-01 -1.14936E-01  2.41843E-02  2.65413E-01  2.49349E-05  1.75658E-04  2.53631E-05 -1.95942E-04 -3.45078E-01 -4.57124E-03  4.56453E-05  5.32802E-06  5.67866E-07  1.50000E+01
  2.04490E+01  1.96682E+01  2.01013E+01 -5.15216E-01 -1.31086E-01  1.78629E-02  2.58223E-01  1.99423E-05  1.33964E-04  1.88465E-05  8.06862E-04 -3.31353E-01 -1.14605E-03  3.64506E-05  4.49773E-06  6.85461E-07  1.50000E+01
  2.04487E+01  1.96709E+01  2.00792E+01 -5.16015E-01 -1.39662E-01  1.33558E-02  2.44134E-01  2.00259E-05  1.38743E-04  1.60583E-05  4.69262E-04 -3.52765E-01 -1.87471E-03  3.74929E-05  4.66969E-06  1.51007E-06  1.50000E+01
  2.04258E+01  1.96708E+01  2.00457E+01 -5.16006E-01 -1.41501E-01  9.61055E-03  3.06390E-01  2.16859E-05  2.03755E-04  1.33311E-05  3.83578E-05 -4.56821E-01 -8.43479E-04  4.73217E-05  6.10388E-06  6.44987E-07  1.50000E+01
  2.04060E+01  1.96672E+01  2.00612E+01 -5.14726E-01 -1.25107E-01  1.53325E-02  2.89559E-01  2.53444E-05  2.24844E-04  1.72911E-05  6.99022E-04 -4.65215E-01 -3.28441E-03  5.26224E-05  6.49244E-06 -4.32457E-07  1.50000E+01
  2.04040E+01  1.96686E+01  2.00345E+01 -5.15111E-01 -1.32726E-01  8.72913E-03  2.98797E-01  2.34114E-05  2.14454E-04  9.54442E-06  5.58940E-04 -4.61718E-01 -1.56628E-03  5.01351E-05  6.33782E-06 -1.89441E-08  1.50000E+01
  2.04273E+01  1.96605E+01  2.01346E+01 -5.13797E-01 -9.46626E-02  3.28414E-02  2.70479E-01  3.12869E-05  2.01948E-04  3.54759E-05  4.85440E-04 -3.14842E-01 -4.52778E-03  5.31149E-05  5.40872E-06  2.01504E-06  1.50000E+01
  2.04481E+01  1.96647E+01  2.01241E+01 -5.14622E-01 -1.18720E-01  2.34261E-02  2.60980E-01  2.26573E-05  1.73900E-04  2.86805E-05 -1.63209E-04 -3.50444E-01 -2.98219E-03  4.34487E-05  5.16609E-06  4.83006E-07  1.50000E+01
  2.03625E+01  1.96599E+01  2.00907E+01 -5.13800E-01 -4.32987E-02  3.57070E-02  2.76010E-01  4.38760E-05  2.24168E-04  2.24742E-05 -1.93352E-03 -2.04264E-01 -3.61738E-03  6.16582E-05  4.55512E-06  1.75333E-06  1.50000E+01
  2.03618E+01  1.96621E+01  2.00635E+01 -5.14017E-01 -6.81406E-02  2.39141E-02  2.75125E-01  3.96343E-05  2.12694E-04  1.59033E-05 -4.02222E-04 -2.85011E-01 -2.85113E-03  5.93413E-05  5.26171E-06  1.46090E-06  1.50000E+01
  2.03403E+01  1.96595E+01  2.00773E+01 -5.13466E-01 -3.59090E-03  3.54889E-02  2.79017E-01  4.84483E-05  2.10086E-04  1.59777E-05 -4.87467E-03 -6.98685E-02 -2.18694E-03  6.03178E-05  3.00324E-06  1.72249E-06  1.50000E+01
  2.03852E+01  1.96605E+01  2.01045E+01 -5.13745E-01 -7.07403E-02  3.48409E-02  2.76095E-01  4.24373E-05  2.42929E-04  3.03773E-05  9.74073E-05 -3.12106E-01 -5.36032E-03  6.55958E-05  5.91528E-06  1.91395E-06  1.50000E+01
  2.03628E+01  1.96572E+01  2.01177E+01 -5.13297E-01 -6.64442E-03  4.94248E-02  2.64264E-01  4.39192E-05  2.26936E-04  2.51930E-05 -4.26071E-03 -7.68184E-02 -3.51682E-03  5.72354E-05  3.14105E-06  5.96863E-08  1.50000E+01
  2.03847E+01  1.96569E+01  2.01316E+01 -5.13511E-01 -3.51167E-02  4.79768E-02  2.76545E-01  3.96123E-05  2.34809E-04  3.27039E-05 -1.91933E-03 -1.65790E-01 -4.66433E-03  5.66404E-05  4.13937E-06  2.09096E-07  1.50000E+01
  2.03847E+01  1.96634E+01  2.00766E+01 -5.14007E-01 -9.47829E-02  2.41079E-02  2.70902E-01  3.60392E-05  2.36571E-04  2.19759E-05  7.36841E-04 -3.97753E-01 -3.18071E-03  6.14585E-05  6.47341E-06  6.51040E-07  1.50000E+01
  2.03832E+01  1.96653E+01  2.00492E+01 -5.14287E-01 -1.09035E-01  1.50511E-02  2.79993E-01  2.94050E-05  2.14051E-04  1.25751E-05  8.21331E-04 -4.11794E-01 -2.26045E-03  5.39078E-05  6.15528E-06 -1.12075E-07  1.50000E+01
  2.04681E+01  1.96722E+01  2.00900E+01 -5.16649E-01 -1.41638E-01  1.24488E-02  1.76502E-01  2.45266E-05  1.40963E-04  1.95462E-05 -6.52106E-05 -3.89711E-01 -1.22352E-03  4.20623E-05  5.07270E-06  2.47183E-06  1.50000E+01
  2.04675E+01  1.96747E+01  2.00665E+01 -5.17622E-01 -1.47793E-01  8.97228E-03  2.90656E-01  2.34525E-05  1.66161E-04  1.71565E-05 -3.23107E-04 -4.20064E-01 -1.08688E-03  4.43936E-05  5.53814E-06  2.26584E-06  1.50000E+01
  2.04682E+01  1.96689E+01  2.01133E+01 -5.15687E-01 -1.33278E-01  1.65354E-02  2.46305E-01  2.30657E-05  1.50206E-04  2.42832E-05  1.42878E-04 -3.79195E-01 -1.58077E-03  4.15597E-05  5.02386E-06  1.32141E-06  1.50000E+01
  2.04470E+01  1.96729E+01  2.00560E+01 -5.16939E-01 -1.45872E-01  9.55296E-03  3.11897E-01  2.04523E-05  1.85187E-04  1.54206E-05 -5.95121E-04 -4.27931E-01 -8.71141E-04  4.38645E-05  5.63375E-06  1.35399E-06  1.50000E+01
  2.04667E+01  1.96764E+01  2.00424E+01 -5.18483E-01 -1.52103E-01  5.86057E-03  3.00233E-01  2.41776E-05  1.88701E-04  1.27710E-05 -8.51846E-04 -4.55051E-01 -5.85046E-04  4.77376E-05  6.12177E-06  1.80435E-06  1.50000E+01
  2.03822E+01  1.96664E+01  2.00223E+01 -5.14522E-01 -1.16818E-01  6.96595E-03  2.80967E-01  2.67933E-05  2.04512E-04  5.40532E-06  8.37313E-04 -4.21224E-01 -1.21453E-03  5.09182E-05  6.03115E-06 -2.12860E-07  1.50000E+01
  2.04246E+01  1.96718E+01  2.00200E+01 -5.16387E-01 -1.45558E-01  4.50434E-03  3.25757E-01  2.06472E-05  2.16232E-04  6.02852E-06 -6.49670E-05 -4.76447E-01 -5.09952E-04  4.84295E-05  6.34570E-06  3.53007E-07  1.50000E+01
  2.04032E+01  1.96693E+01  2.00082E+01 -5.15339E-01 -1.36223E-01  2.46954E-03  2.87342E-01  2.16359E-05  2.19163E-04  2.29737E-06  4.66431E-04 -4.64181E-01 -5.31527E-04  4.92572E-05  6.30121E-06 -3.77415E-08  1.50000E+01
  2.03630E+01  1.96541E+01  2.01442E+01 -5.12073E-01  4.24754E-02  6.51659E-02  2.57368E-01  4.31839E-05  2.29605E-04  2.48181E-05 -8.50592E-03  8.43065E-02 -1.95980E-03  4.99041E-05  1.49187E-06 -2.78047E-06  1.50000E+01
  2.03846E+01  1.96531E+01  2.01576E+01 -5.12875E-01  9.99006E-03  6.28825E-02  2.59123E-01  3.73091E-05  2.28582E-04  3.17829E-05 -5.20049E-03 -1.82334E-02 -3.85779E-03  4.86725E-05  2.48868E-06 -2.23002E-06  1.50000E+01
  2.08010E+01  1.96492E+01  1.97094E+01 -4.78878E-01 -1.84972E-01  8.57934E-02  1.20117E-01  4.71160E-05 -3.39550E-06 -1.51946E-05 -1.24911E-03 -5.88836E-01  2.72570E-03  4.75362E-05 -5.75602E-06 -1.40364E-05  1.50000E+01
  2.07801E+01  1.96540E+01  1.97218E+01 -4.84217E-01 -1.84474E-01  7.62395E-02  1.78502E-01  4.58228E-05  4.53694E-05 -3.37262E-05 -1.11589E-03 -5.85830E-01  2.34585E-03  4.73356E-05 -4.40927E-06 -1.37495E-05  1.50000E+01
  2.08004E+01  1.96592E+01  1.97338E+01 -4.82214E-01 -2.01307E-01  8.08405E-02  1.49876E-01  4.68599E-05  2.63679E-05 -2.63650E-05 -1.04746E-03 -6.39264E-01  2.40563E-03  4.77249E-05 -4.68650E-06 -1.39033E-05  1.50000E+01
  2.07794E+01  1.96635E+01  1.97463E+01 -4.87235E-01 -1.99304E-01  7.14091E-02  1.71258E-01  4.49296E-05  6.73911E-05 -4.01888E-05 -9.69694E-04 -6.31741E-01  2.07349E-03  4.77817E-05 -3.37039E-06 -1.34753E-05  1.50000E+01
  2.07997E+01  1.96687E+01  1.97584E+01 -4.85065E-01 -2.15165E-01  7.50441E-02  1.18343E-01  4.42937E-05  4.92107E-05 -3.24451E-05 -9.01451E-04 -6.81858E-01  2.05256E-03  4.63749E-05 -3.35169E-06 -1.29443E-05  1.50000E+01
  2.08635E+01  1.96311E+01  1.96734E+01 -4.60311E-01 -1.71633E-01  1.10645E-01  8.92147E-02  4.78331E-05 -2.67390E-05 -6.44113E-06 -1.82142E-03 -5.49481E-01  3.41540E-03  4.92395E-05 -9.97158E-06 -1.48394E-05  1.50000E+01
  2.08428E+01  1.96377E+01  1.96852E+01 -4.66992E-01 -1.78832E-01  1.03206E-01  1.38661E-01  4.83598E-05 -1.03747E-05 -1.46398E-05 -1.59377E-03 -5.71538E-01  3.28118E-03  4.85546E-05 -8.66132E-06 -1.48579E-05  1.50000E+01
  2.08630E+01  1.96428E+01  1.96974E+01 -4.65088E-01 -1.94358E-01  1.06785E-01  8.88463E-03  4.69623E-05 -6.80736E-05  1.32642E-05 -1.53381E-03 -6.20266E-01  3.00073E-03  4.94255E-05 -8.74188E-06 -1.46130E-05  1.50000E+01
  2.04683E+01  1.96649E+01  2.01369E+01 -5.14722E-01 -1.22062E-01  2.14550E-02  2.56834E-01  2.29395E-05  1.82533E-04  3.41351E-05  4.32003E-05 -3.68234E-01 -2.82273E-03  4.49442E-05  5.25758E-06  1.12000E-06  1.50000E+01
  2.08625E+01  1.96540E+01  1.97215E+01 -4.69073E-01 -2.13707E-01  1.01509E-01  2.98693E-02  4.74023E-05 -5.50528E-05  7.35918E-06 -1.28522E-03 -6.80423E-01  2.58331E-03  4.85498E-05 -7.34311E-06 -1.41800E-05  1.50000E+01
  2.08833E+01  1.96479E+01  1.97097E+01 -4.63021E-01 -2.08816E-01  1.09496E-01 -1.54844E-02  4.80732E-05 -4.98252E-05  4.73306E-06 -1.47280E-03 -6.65807E-01  2.77469E-03  4.98920E-05 -8.83822E-06 -1.46355E-05  1.50000E+01
  2.04870E+01  1.96797E+01  2.00292E+01 -5.19859E-01 -1.55854E-01  3.25493E-03  2.72452E-01  2.69409E-05  1.83457E-04  8.62455E-06 -1.10120E-03 -4.68817E-01 -3.33303E-04  4.99238E-05  6.37764E-06  1.28421E-06  1.50000E+01
  2.04662E+01  1.96774E+01  2.00176E+01 -5.18984E-01 -1.54543E-01  2.81257E-03  3.00397E-01  2.57900E-05  1.95184E-04  5.50111E-06 -9.75896E-04 -4.74262E-01 -2.27197E-04  4.97320E-05  6.49386E-06  7.34918E-07  1.50000E+01
  2.04060E+01  1.96565E+01  2.01457E+01 -5.13463E-01 -5.42315E-02  4.59883E-02  2.85042E-01  3.52295E-05  2.26833E-04  3.79064E-05 -5.82191E-04 -2.12515E-01 -4.72500E-03  5.41298E-05  4.48979E-06  7.52951E-07  1.50000E+01
  2.04060E+01  1.96522E+01  2.01709E+01 -5.13021E-01 -1.46283E-02  5.96146E-02  2.48036E-01  3.49449E-05  2.20342E-04  3.76911E-05 -2.90605E-03 -9.13579E-02 -5.29253E-03  4.88718E-05  3.16893E-06 -1.15879E-06  1.50000E+01
  2.04270E+01  1.96560E+01  2.01593E+01 -5.13290E-01 -6.81982E-02  4.31115E-02  2.78978E-01  3.18665E-05  2.15946E-04  4.21245E-05  7.63665E-05 -2.42541E-01 -5.49581E-03  5.23183E-05  4.59500E-06  1.74838E-06  1.50000E+01
  2.03818E+01  1.96666E+01  1.99960E+01 -5.14664E-01 -1.18692E-01 -6.82364E-04  2.84953E-01  2.61026E-05  2.00063E-04 -9.46510E-07  8.23677E-04 -4.18429E-01 -7.79922E-05  4.98511E-05  5.94569E-06 -1.19887E-08  1.50000E+01
  2.04241E+01  1.96720E+01  1.99943E+01 -5.16504E-01 -1.46513E-01 -4.77960E-04  3.65099E-01  1.93512E-05  2.24940E-04 -1.74116E-06 -1.07721E-04 -4.78783E-01  9.27138E-05  4.83351E-05  6.35679E-06 -1.47928E-07  1.50000E+01
  2.04028E+01  1.96691E+01  1.99823E+01 -5.15355E-01 -1.35366E-01 -3.69200E-03  2.97276E-01  2.23244E-05  2.09274E-04 -4.66061E-06  5.14599E-04 -4.55907E-01  4.75728E-04  4.82621E-05  6.15789E-06  1.63473E-07  1.50000E+01
  2.08193E+01  1.96824E+01  1.97953E+01 -4.85045E-01 -2.40168E-01  7.00063E-02  7.16780E-02  4.57631E-05  4.53550E-05 -2.89838E-05 -7.49409E-04 -7.59235E-01  1.51002E-03  4.81820E-05 -2.43029E-06 -1.29361E-05  1.50000E+01
  2.08403E+01  1.96787E+01  1.97827E+01 -4.80249E-01 -2.42579E-01  7.87187E-02  8.59337E-02  4.72250E-05  3.38908E-05 -2.71637E-05 -8.05887E-04 -7.68227E-01  1.62171E-03  4.87221E-05 -3.75423E-06 -1.36955E-05  1.50000E+01
  2.08200E+01  1.96738E+01  1.97705E+01 -4.82732E-01 -2.29569E-01  7.74365E-02  1.15428E-01  4.60690E-05  4.28533E-05 -3.05527E-05 -8.50945E-04 -7.27151E-01  1.88673E-03  4.77477E-05 -3.63151E-06 -1.35436E-05  1.50000E+01
  2.04883E+01  1.96732E+01  2.01017E+01 -5.17128E-01 -1.42700E-01  1.10551E-02  2.00744E-01  2.59426E-05  1.51302E-04  2.40185E-05 -4.07806E-04 -4.14108E-01 -1.16797E-03  4.45679E-05  5.19773E-06  3.14093E-06  1.50000E+01
  2.01152E+01  1.97917E+01  2.01916E+01 -4.96791E-02  1.11740E+00  1.46897E-04 -1.86671E-01  1.01124E-04 -3.11543E-06 -4.08924E-05  5.88994E-03  3.51221E+00 -1.37590E-03  5.04031E-05 -5.31620E-05 -2.35368E-06  1.50000E+01
  2.01037E+01  1.98117E+01  2.02020E+01 -3.44603E-02  1.13362E+00  4.85436E-05 -1.66758E-01  1.94602E-04  6.62286E-05 -1.10799E-04  3.94489E-03  3.56082E+00  8.59540E-05  5.88565E-05 -6.25528E-05 -1.41158E-06  1.50000E+01
  2.01225E+01  1.98027E+01  2.02149E+01 -3.99978E-02  1.12272E+00  3.50156E-05 -6.62595E-02  1.78643E-04  4.08245E-05 -1.00354E-04  4.71448E-03  3.53654E+00 -2.91686E-04  6.20821E-05 -6.82419E-05 -2.86037E-06  1.50000E+01
  2.08821E+01  1.96696E+01  1.97582E+01 -4.69949E-01 -2.42613E-01  9.61201E-02  3.03049E-04  4.81427E-05 -1.19931E-05 -1.08995E-05 -1.01452E-03 -7.70718E-01  1.93117E-03  4.85407E-05 -6.04752E-06 -1.34392E-05  1.50000E+01
  2.09030E+01  1.96641E+01  1.97463E+01 -4.64369E-01 -2.39922E-01  1.04607E-01 -1.21636E-02  2.47982E-05 -1.39763E-05 -2.54868E-06  7.37356E-03 -3.91645E-01  1.08889E-02  2.51125E-05 -3.67317E-06 -7.04540E-06  1.50000E+01
  2.08827E+01  1.96590E+01  1.97338E+01 -4.66793E-01 -2.27258E-01  1.03429E-01 -7.33253E-03  4.91430E-05 -3.12831E-05 -3.55325E-06 -1.22670E-03 -7.23166E-01  2.35733E-03  4.98126E-05 -7.48557E-06 -1.41594E-05  1.50000E+01
  2.08207E+01  1.96644E+01  1.97459E+01 -4.80039E-01 -2.16709E-01  8.41532E-02  1.05171E-01  4.71796E-05  1.31375E-05 -2.08395E-05 -9.90508E-04 -6.87802E-01  2.27247E-03  4.77233E-05 -4.76136E-06 -1.37302E-05  1.50000E+01
  2.08409E+01  1.96695E+01  1.97580E+01 -4.77707E-01 -2.30692E-01  8.63017E-02  7.04031E-02  4.61314E-05  1.33413E-05 -2.01553E-05 -9.38671E-04 -7.31889E-01  2.02789E-03  4.66807E-05 -4.66693E-06 -1.32036E-05  1.50000E+01
  2.03815E+01  1.96660E+01  1.99700E+01 -5.14684E-01 -1.14670E-01 -8.33549E-03  2.86660E-01  2.63640E-05  1.95391E-04 -6.85301E-06  7.95184E-04 -4.00830E-01  1.17144E-03  4.92040E-05  5.76539E-06  2.02026E-07  1.50000E+01
  2.03611E+01  1.96635E+01  2.00365E+01 -5.14213E-01 -8.30447E-02  1.35090E-02  2.72480E-01  3.45197E-05  2.01612E-04  8.61297E-06  2.09289E-04 -3.25025E-01 -1.84887E-03  5.48233E-05  5.40397E-06  5.23776E-07  1.50000E+01
  2.03606E+01  1.96642E+01  2.00098E+01 -5.14404E-01 -8.96166E-02  3.93018E-03  2.76122E-01  3.24847E-05  1.95593E-04  2.24482E-06  3.50390E-04 -3.38858E-01 -7.17180E-04  5.28599E-05  5.42683E-06  7.94308E-08  1.50000E+01
  2.08432E+01  1.96261E+01  1.96612E+01 -4.61968E-01 -1.55234E-01  1.06356E-01  1.05779E-01  5.00821E-05  3.05171E-05 -3.46541E-05 -1.87875E-03 -4.97989E-01  3.67985E-03  4.84955E-05 -9.75553E-06 -1.47253E-05  1.50000E+01
  2.07788E+01  1.96724E+01  1.97710E+01 -4.89832E-01 -2.11923E-01  6.58654E-02  1.47703E-01  4.36076E-05  7.87221E-05 -4.13932E-05 -8.62322E-04 -6.70261E-01  1.77592E-03  4.77012E-05 -2.31335E-06 -1.31667E-05  1.50000E+01
  2.07991E+01  1.96775E+01  1.97831E+01 -4.87516E-01 -2.26767E-01  6.85246E-02  1.28117E-01  4.52490E-05  6.81380E-05 -3.78138E-05 -7.96916E-04 -7.17045E-01  1.70022E-03  4.86979E-05 -2.50702E-06 -1.36056E-05  1.50000E+01
  2.03398E+01  1.96610E+01  2.00503E+01 -5.13988E-01 -2.87410E-02  2.24618E-02  2.83762E-01  4.46213E-05  2.04179E-04  1.10674E-05 -2.92577E-03 -1.52566E-01 -1.92866E-03  5.89848E-05  3.83416E-06  1.51203E-06  1.50000E+01
  2.03180E+01  1.96604E+01  2.00373E+01 -5.13097E-01  2.78684E-02  1.94462E-02  2.95370E-01  5.15707E-05  2.00006E-04  6.34713E-06 -7.64070E-03  3.04441E-02 -6.34249E-04  5.90032E-05  1.80435E-06  8.03593E-07  1.50000E+01
  2.03184E+01  1.96594E+01  2.00640E+01 -5.11955E-01  5.17338E-02  3.37606E-02  2.86131E-01  5.40641E-05  1.99196E-04  9.53519E-06 -9.77218E-03  1.10028E-01 -3.66280E-04  5.89320E-05  9.48198E-07  7.00066E-07  1.50000E+01
  2.04879E+01  1.96762E+01  2.00778E+01 -5.18207E-01 -1.48701E-01  8.11987E-03  2.49667E-01  2.60950E-05  1.63699E-04  2.03421E-05 -6.09151E-04 -4.30687E-01 -8.66726E-04  4.63877E-05  5.59023E-06  3.00167E-06  1.50000E+01
  2.04875E+01  1.96783E+01  2.00537E+01 -5.19157E-01 -1.53061E-01  5.56902E-03  2.68107E-01  2.62433E-05  1.76710E-04  1.53740E-05 -8.54760E-04 -4.51573E-01 -6.54284E-04  4.83219E-05  6.02485E-06  2.38782E-06  1.50000E+01
  2.05075E+01  1.96828E+01  2.00162E+01 -5.20897E-01 -1.58690E-01  1.52768E-03  2.50944E-01  2.40031E-05  1.82601E-04  4.55703E-06 -1.22962E-03 -4.78198E-01 -1.62113E-04  4.68898E-05  5.93807E-06  4.88286E-07  1.50000E+01
  2.04867E+01  1.96803E+01  2.00044E+01 -5.20191E-01 -1.57048E-01  1.01338E-03  2.77830E-01  2.73305E-05  1.86521E-04  1.19925E-06 -1.16383E-03 -4.78300E-01 -3.23169E-05  5.07541E-05  6.54771E-06  9.13687E-08  1.50000E+01
  2.08416E+01  1.96595E+01  1.97336E+01 -4.74726E-01 -2.16288E-01  9.30215E-02  7.72369E-02  4.77236E-05 -2.64381E-05 -5.28947E-06 -1.13139E-03 -6.87624E-01  2.43223E-03  4.80881E-05 -6.06910E-06 -1.40016E-05  1.50000E+01
  2.08422E+01  1.96489E+01  1.97093E+01 -4.71196E-01 -1.99094E-01  9.87118E-02  2.85186E-02  4.64537E-05 -7.00423E-05  1.37904E-05 -1.34318E-03 -6.34516E-01  2.84614E-03  4.79070E-05 -7.28046E-06 -1.42636E-05  1.50000E+01
  2.07591E+01  1.96583E+01  1.97344E+01 -4.89220E-01 -1.82157E-01  6.64702E-02  2.13548E-01  4.38619E-05  9.33017E-05 -5.03278E-05 -1.06488E-03 -5.77071E-01  1.91932E-03  4.81568E-05 -3.21708E-06 -1.36130E-05  1.50000E+01
  2.03412E+01  1.96553E+01  2.01308E+01 -5.10059E-01  8.57710E-02  6.62914E-02  2.29612E-01  5.03763E-05  2.13007E-04  1.64843E-05 -1.30436E-02  2.25185E-01  7.19066E-04  5.10179E-05 -1.54862E-08 -2.74155E-06  1.50000E+01
  2.03201E+01  1.96552E+01  2.01440E+01 -4.98541E-01  2.10410E-01  8.28525E-02  2.20691E-01  6.51258E-05  1.95924E-04  6.48628E-06 -2.54574E-02  6.34801E-01  8.56954E-03  4.98056E-05 -4.24621E-06 -3.56213E-06  1.50000E+01
  2.03417E+01  1.96530E+01  2.01571E+01 -5.05219E-01  1.51950E-01  8.37715E-02  1.70360E-01  5.66210E-05  2.09085E-04  1.49228E-05 -2.00122E-02  4.37503E-01  4.92169E-03  4.83499E-05 -2.14342E-06 -3.07675E-06  1.50000E+01
  2.08618E+01  1.96645E+01  1.97458E+01 -4.72411E-01 -2.29969E-01  9.50016E-02  4.66798E-02  4.83583E-05 -1.14497E-05 -1.15260E-05 -1.07521E-03 -7.30731E-01  2.16674E-03  4.86277E-05 -6.10303E-06 -1.38156E-05  1.50000E+01
  2.07807E+01  1.96440E+01  1.96975E+01 -4.80691E-01 -1.67260E-01  8.02750E-02  1.79816E-01  4.77360E-05  4.71991E-05 -3.67070E-05 -1.31687E-03 -5.32386E-01  2.59742E-03  4.86568E-05 -5.50816E-06 -1.40608E-05  1.50000E+01
  2.07597E+01  1.96488E+01  1.97100E+01 -4.86028E-01 -1.66489E-01  7.03193E-02  2.06010E-01  4.52051E-05  8.21490E-05 -4.84632E-05 -1.21446E-03 -5.28241E-01  2.09491E-03  4.81335E-05 -4.09572E-06 -1.36048E-05  1.50000E+01
  2.04272E+01  1.96512E+01  2.01839E+01 -5.12809E-01 -3.38027E-02  5.54858E-02  2.26560E-01  3.12058E-05  2.14693E-04  4.25939E-05 -1.42225E-03 -1.45464E-01 -6.46991E-03  4.75274E-05  3.61370E-06 -6.50666E-07  1.50000E+01
  2.04480E+01  1.96555E+01  2.01723E+01 -5.13016E-01 -7.90086E-02  3.95656E-02  2.78024E-01  2.81236E-05  2.16593E-04  4.70391E-05  3.78279E-04 -2.68592E-01 -5.73994E-03  5.00555E-05  4.69311E-06  1.74047E-06  1.50000E+01
  2.04063E+01  1.96477E+01  2.01960E+01 -5.11830E-01  3.62007E-02  7.56947E-02  2.82747E-01  4.02611E-05  2.29176E-04  3.90400E-05 -7.10248E-03  6.10531E-02 -4.17320E-03  4.72085E-05  1.65117E-06 -1.98856E-06  1.50000E+01
  2.04238E+01  1.96713E+01  1.99687E+01 -5.16324E-01 -1.44140E-01 -5.52198E-03  2.99427E-01  2.15314E-05  2.07732E-04 -9.25215E-06  6.53997E-05 -4.70009E-01  8.75208E-04  4.77371E-05  6.21342E-06 -4.26611E-07  1.50000E+01
  2.08219E+01  1.96438E+01  1.96972E+01 -4.73155E-01 -1.83204E-01  9.48628E-02  9.20930E-02  4.76765E-05 -2.88085E-05 -5.13486E-06 -1.39693E-03 -5.84502E-01  3.04957E-03  4.83018E-05 -7.20066E-06 -1.44140E-05  1.50000E+01
  2.08225E+01  1.96327E+01  1.96731E+01 -4.68725E-01 -1.62057E-01  9.85886E-02  1.66758E-01  4.92152E-05  3.32129E-05 -3.45184E-05 -1.64402E-03 -5.18633E-01  3.44709E-03  4.82226E-05 -8.36514E-06 -1.46513E-05  1.50000E+01
  2.08016E+01  1.96387E+01  1.96852E+01 -4.74939E-01 -1.65945E-01  8.98060E-02  1.91510E-01  4.87102E-05  3.55822E-05 -3.40165E-05 -1.44872E-03 -5.29786E-01  3.08264E-03  4.85738E-05 -7.03131E-06 -1.46566E-05  1.50000E+01
  2.07387E+01  1.96529E+01  1.97226E+01 -4.90986E-01 -1.64186E-01  6.02607E-02  2.36865E-01  4.18272E-05  1.12296E-04 -5.71453E-05 -1.19486E-03 -5.19388E-01  1.59571E-03  4.75212E-05 -2.78430E-06 -1.30982E-05  1.50000E+01
  2.05089E+01  1.96740E+01  2.01138E+01 -5.17350E-01 -1.43431E-01  9.09967E-03  2.20651E-01  2.50595E-05  1.70374E-04  3.03012E-05 -6.59850E-04 -4.25717E-01 -1.12323E-03  4.58232E-05  5.12669E-06  3.75220E-06  1.50000E+01
  2.04886E+01  1.96695E+01  2.01255E+01 -5.15971E-01 -1.34800E-01  1.45270E-02  2.13444E-01  2.39578E-05  1.64694E-04  3.04077E-05 -2.29343E-04 -4.00129E-01 -1.71998E-03  4.41093E-05  5.10932E-06  2.32262E-06  1.50000E+01
  2.03408E+01  1.96575E+01  2.01041E+01 -5.12395E-01  3.41595E-02  5.00686E-02  2.69620E-01  4.84825E-05  2.12700E-04  1.70921E-05 -8.13229E-03  5.61692E-02 -1.44771E-03  5.58588E-05  1.64268E-06 -6.08779E-07  1.50000E+01
  2.03189E+01  1.96581E+01  2.00908E+01 -5.09833E-01  8.95394E-02  4.91989E-02  2.62316E-01  5.47588E-05  1.97917E-04  9.66995E-06 -1.34319E-02  2.36568E-01  9.94266E-04  5.51034E-05 -3.14932E-07 -1.37506E-06  1.50000E+01
  2.01114E+01  1.98233E+01  2.02248E+01 -2.68842E-02  1.13808E+00  0.00000E+00 -1.12581E-01  1.50477E-04  7.04823E-05 -9.39003E-05  7.83620E-01 -2.88981E+01 -3.09276E+01  3.45217E-05 -3.64315E-05  2.29321E-07  1.50000E+01
  2.09040E+01  1.96413E+01  1.96981E+01 -4.56500E-01 -2.01445E-01  1.16874E-01  1.54846E-03  2.47710E-05 -1.90783E-05 -6.10322E-07  7.56761E-03 -3.28853E-01  1.18237E-02  2.57011E-05 -5.07469E-06 -7.57260E-06  1.50000E+01
  2.08838E+01  1.96361E+01  1.96857E+01 -4.58488E-01 -1.86983E-01  1.14109E-01 -3.48573E-02  4.91954E-05 -5.44795E-05  6.29033E-06 -1.76388E-03 -5.97737E-01  3.17644E-03  5.18472E-05 -1.05299E-05 -1.55494E-05  1.50000E+01
  2.07603E+01  1.96388E+01  1.96857E+01 -4.82307E-01 -1.48602E-01  7.34527E-02  2.53945E-01  4.74727E-05  1.01083E-04 -5.93745E-05 -1.41216E-03 -4.72425E-01  2.26164E-03  4.95828E-05 -5.19198E-06 -1.42555E-05  1.50000E+01
  2.07394E+01  1.96434E+01  1.96982E+01 -4.87614E-01 -1.47943E-01  6.31529E-02  2.55332E-01  4.49913E-05  1.15398E-04 -6.17915E-05 -1.35133E-03 -4.68530E-01  1.68764E-03  4.96437E-05 -3.69459E-06 -1.35357E-05  1.50000E+01
  2.03603E+01  1.96640E+01  1.99836E+01 -5.14549E-01 -8.83724E-02 -5.35371E-03  2.78380E-01  3.20929E-05  1.92316E-04 -3.68948E-06  2.36063E-04 -3.29600E-01  5.69232E-04  5.19942E-05  5.29703E-06 -2.33002E-07  1.50000E+01
  2.04890E+01  1.96650E+01  2.01495E+01 -5.14730E-01 -1.24524E-01  1.87565E-02  2.45795E-01  2.52089E-05  1.89721E-04  4.06049E-05 -8.67355E-05 -3.80211E-01 -2.65357E-03  4.80616E-05  5.26363E-06  2.89553E-06  1.50000E+01
  2.03634E+01  1.96511E+01  2.01701E+01 -5.09033E-01  1.04656E-01  8.25952E-02  1.44499E-01  5.07152E-05  2.28708E-04  2.44583E-05 -1.48635E-02  2.79657E-01  1.36710E-03  4.77773E-05 -5.58277E-07 -2.69629E-06  1.50000E+01
  2.03849E+01  1.96494E+01  2.01831E+01 -5.11005E-01  6.67498E-02  7.97928E-02  3.38440E-01  4.42142E-05  2.30730E-04  3.20298E-05 -1.05206E-02  1.56545E-01 -1.67021E-03  4.68928E-05  6.88842E-07 -2.42191E-06  1.50000E+01
  2.01271E+01  1.97724E+01  2.01807E+01 -6.94013E-02  1.09714E+00  1.15857E-03 -1.00649E-02  9.07594E-05 -1.82969E-06 -3.12122E-05  7.88693E-03  3.46073E+00 -2.39256E-03  4.67731E-05 -4.70406E-05 -1.90200E-06  1.50000E+01
  2.01088E+01  1.97820E+01  2.01676E+01 -6.05366E-02  1.11173E+00  6.51708E-04 -2.49631E-02  7.98601E-05 -1.44136E-05 -2.22799E-05  6.18136E-03  3.48318E+00 -1.55437E-03  4.84154E-05 -4.84857E-05 -1.57114E-06  1.50000E+01
  2.08229E+01  1.96212E+01  1.96491E+01 -4.63456E-01 -1.37649E-01  1.01079E-01  1.64812E-01  5.09513E-05  5.27698E-05 -4.48409E-05 -1.92482E-03 -4.42408E-01  3.80673E-03  4.83319E-05 -9.32013E-06 -1.44223E-05  1.50000E+01
  2.02964E+01  1.96604E+01  2.00245E+01 -5.09465E-01  1.05214E-01  1.45087E-02  3.05252E-01  6.00778E-05  1.97340E-04  2.18365E-06 -1.46159E-02  2.81211E-01  4.39911E-04  5.78239E-05 -1.00040E-06 -2.06530E-07  1.50000E+01
  2.02967E+01  1.96599E+01  2.00510E+01 -5.07591E-01  1.25737E-01  3.00790E-02  2.85202E-01  6.17196E-05  1.91440E-04  3.56613E-06 -1.65365E-02  3.51165E-01  1.43142E-03  5.74961E-05 -1.73813E-06 -8.42306E-07  1.50000E+01
  2.05085E+01  1.96774E+01  2.00897E+01 -5.18543E-01 -1.49372E-01  6.74916E-03  2.42062E-01  2.71630E-05  1.71801E-04  2.48546E-05 -8.09439E-04 -4.40348E-01 -8.11750E-04  4.82121E-05  5.58422E-06  3.68988E-06  1.50000E+01
  2.05081E+01  1.96800E+01  2.00654E+01 -5.19578E-01 -1.53863E-01  4.77553E-03  2.45839E-01  2.68697E-05  1.74381E-04  1.82185E-05 -9.70752E-04 -4.54855E-01 -5.94973E-04  4.85083E-05  5.88266E-06  2.53562E-06  1.50000E+01
  2.03208E+01  1.96542E+01  2.01704E+01 -4.85823E-01  2.94146E-01  9.93046E-02  1.75020E-01  7.78684E-05  2.04387E-04  1.16608E-06 -3.24957E-02  9.11552E-01  1.53851E-02  4.93348E-05 -7.16216E-06 -4.38988E-06  1.50000E+01
  2.03005E+01  1.96585E+01  2.01840E+01 -4.46511E-01  4.59170E-01  1.05265E-01  2.83262E-01  1.11466E-04  2.18164E-04 -2.00126E-05 -3.66194E-02  1.47300E+00  2.33558E-02  5.25750E-05 -1.44424E-05 -7.26463E-06  1.50000E+01
  2.03217E+01  1.96540E+01  2.01967E+01 -4.65154E-01  3.92077E-01  1.12931E-01  1.90922E-01  9.58933E-05  2.14389E-04 -9.16771E-06 -3.76057E-02  1.23889E+00  2.30692E-02  5.01204E-05 -1.11110E-05 -6.51005E-06  1.50000E+01
  2.07184E+01  1.96474E+01  1.97109E+01 -4.92478E-01 -1.46112E-01  5.29068E-02  2.47752E-01  4.14826E-05  1.31215E-04 -6.44600E-05 -1.35813E-03 -4.61237E-01  1.19698E-03  4.90066E-05 -2.37311E-06 -1.29489E-05  1.50000E+01
  2.03393E+01  1.96619E+01  2.00236E+01 -5.14320E-01 -4.26260E-02  1.05741E-02  2.85053E-01  4.09254E-05  1.99054E-04  5.16238E-06 -2.02206E-03 -1.95460E-01 -1.11375E-03  5.64560E-05  4.18701E-06  6.54567E-07  1.50000E+01
  2.03390E+01  1.96622E+01  1.99972E+01 -5.14561E-01 -4.62120E-02 -7.16083E-04  2.86820E-01  3.96326E-05  1.96175E-04 -6.70780E-07 -1.92667E-03 -2.04214E-01 -7.61109E-05  5.53277E-05  4.23526E-06 -1.51426E-07  1.50000E+01
  2.05078E+01  1.96818E+01  2.00409E+01 -5.20390E-01 -1.56970E-01  3.07276E-03  2.47720E-01  2.49995E-05  1.78693E-04  1.15238E-05 -1.11952E-03 -4.68341E-01 -3.96039E-04  4.73007E-05  5.90395E-06  1.46042E-06  1.50000E+01
  2.08021E+01  1.96277E+01  1.96611E+01 -4.70282E-01 -1.44010E-01  9.27882E-02  1.58940E-01  4.96309E-05  6.49776E-05 -4.82073E-05 -1.69149E-03 -4.61220E-01  3.40469E-03  4.81579E-05 -7.88932E-06 -1.42532E-05  1.50000E+01
  2.07813E+01  1.96336E+01  1.96733E+01 -4.76541E-01 -1.47490E-01  8.34596E-02  2.24413E-01  4.86396E-05  8.23823E-05 -5.38861E-05 -1.51289E-03 -4.70718E-01  2.87342E-03  4.85916E-05 -6.53907E-06 -1.42919E-05  1.50000E+01
  2.03194E+01  1.96566E+01  2.01175E+01 -5.05848E-01  1.42208E-01  6.57400E-02  2.36917E-01  5.73249E-05  1.93508E-04  7.94223E-06 -1.87507E-02  4.10813E-01  3.83583E-03  5.11879E-05 -1.97257E-06 -3.51749E-06  1.50000E+01
  2.02977E+01  1.96585E+01  2.01044E+01 -4.97916E-01  2.13254E-01  6.28875E-02  2.48199E-01  6.69961E-05  1.81122E-04  1.28723E-06 -2.46982E-02  6.46649E-01  6.72675E-03  5.31520E-05 -4.66530E-06 -3.86034E-06  1.50000E+01
  2.05486E+01  1.96880E+01  1.99904E+01 -5.21673E-01 -1.65015E-01  3.62971E-04  2.06731E-01  2.26732E-05  1.78997E-04 -2.87644E-06 -1.30696E-03 -5.01090E-01  1.44751E-05  4.41906E-05  5.41091E-06 -3.13410E-07  1.50000E+01
  2.05279E+01  1.96852E+01  1.99784E+01 -5.21483E-01 -1.61137E-01 -2.46591E-04  2.47852E-01  2.20547E-05  1.83676E-04 -6.25233E-06 -1.30892E-03 -4.90956E-01  1.20150E-04  4.45187E-05  5.52524E-06 -6.67162E-07  1.50000E+01
  2.05280E+01  1.96855E+01  2.00034E+01 -5.21515E-01 -1.61577E-01  5.77007E-04  2.47501E-01  2.14200E-05  1.85210E-04  8.83394E-07 -1.29036E-03 -4.88625E-01 -5.77332E-05  4.41528E-05  5.50134E-06  5.95425E-08  1.50000E+01
  2.08026E+01  1.96164E+01  1.96371E+01 -4.64769E-01 -1.18947E-01  9.46756E-02  1.96481E-01  5.17882E-05  7.94617E-05 -5.61692E-05 -1.96896E-03 -3.82726E-01  3.71775E-03  4.83873E-05 -8.73319E-06 -1.39485E-05  1.50000E+01
  2.05098E+01  1.96649E+01  2.01621E+01 -5.14568E-01 -1.26285E-01  1.55014E-02  2.21203E-01  2.43211E-05  1.95296E-04  4.55834E-05 -3.11831E-04 -3.86725E-01 -2.35909E-03  4.70958E-05  5.07441E-06  2.89721E-06  1.50000E+01
  2.05093E+01  1.96698E+01  2.01380E+01 -5.16021E-01 -1.35850E-01  1.19568E-02  1.92719E-01  2.34938E-05  1.80629E-04  3.71109E-05 -5.03629E-04 -4.08805E-01 -1.59954E-03  4.48453E-05  4.97277E-06  3.02128E-06  1.50000E+01
  2.02971E+01  1.96592E+01  2.00777E+01 -5.04053E-01  1.61588E-01  4.62510E-02  2.66726E-01  6.34149E-05  1.86281E-04  3.26297E-06 -1.99163E-02  4.72677E-01  3.38685E-03  5.55745E-05 -2.96421E-06 -2.19218E-06  1.50000E+01
  2.03431E+01  1.96499E+01  2.02092E+01 -4.79279E-01  3.30685E-01  1.17439E-01  2.95835E-01  8.90685E-05  2.59811E-04  2.77733E-06 -3.60010E-02  1.02363E+00  2.08115E-02  4.78656E-05 -8.23503E-06 -6.05535E-06  1.50000E+01
  2.03644E+01  1.96462E+01  2.02217E+01 -4.89566E-01  2.75587E-01  1.18935E-01  3.73109E-01  8.27264E-05  2.75688E-04  1.24061E-05 -3.26002E-02  8.32018E-01  1.71586E-02  4.66877E-05 -6.00431E-06 -5.97000E-06  1.50000E+01
  2.03638E+01  1.96483E+01  2.01959E+01 -5.02384E-01  1.81978E-01  1.01086E-01  3.24551E-01  6.50436E-05  2.72957E-04  2.36769E-05 -2.32348E-02  5.26277E-01  7.71538E-03  4.71808E-05 -2.99453E-06 -3.59118E-06  1.50000E+01
  2.00907E+01  1.97921E+01  2.01545E+01 -5.21076E-02  1.12586E+00  3.43733E-04 -1.05985E-01  6.62696E-05 -3.11223E-05 -1.36730E-05  4.66095E-03  3.49259E+00 -9.35977E-04  4.93284E-05 -5.03255E-05 -2.80030E-06  1.50000E+01
  2.00786E+01  1.98109E+01  2.01656E+01 -3.63041E-02  1.14196E+00  1.34270E-05 -1.49444E-01  8.37179E-05 -2.75117E-05 -2.53049E-05  3.68234E-03  3.51439E+00 -4.00319E-04  5.42500E-05 -5.81725E-05 -5.72089E-06  1.50000E+01