 TITLE="3D TRIANGULAR SURFACE DATA"
VARIABLES="X","Y","Z","U","V","W","P", "Fex", "Fey", "Fez","Finx","Finy","Finz","WSSx","WSSy","WSSz","AMForce"
 ZONE T="unstruc"N=        1757 E=        3355 F=FEPOINT  ET=TRIANGLE
  2.04157E+01  2.01303E+01  2.00989E+01  2.89581E-01  1.08708E+00 -1.79479E-03 -7.44111E-01 -3.25720E-04 -5.08473E-04  1.26310E-04  4.21431E-03  4.49721E+00 -3.58071E-04  1.95156E-05 -1.29716E-05  2.25375E-06  1.50000E+01
  2.04341E+01  2.01175E+01  2.00991E+01  3.01568E-01  1.11131E+00 -1.30286E-03 -7.94443E-01 -1.55760E-04 -2.38507E-04  5.84733E-05  4.22283E-03  2.15501E+00  7.66667E-05  9.35271E-06 -6.41544E-06  8.44899E-07  1.50000E+01
  2.04290E+01  2.01164E+01  2.00777E+01  3.02618E-01  1.10568E+00 -6.72426E-04 -7.49925E-01 -2.27608E-04 -3.50085E-04  6.65962E-05  1.28770E-03  3.17091E+00  1.99064E-03  1.30482E-05 -8.94812E-06  1.13342E-06  1.50000E+01
  2.04151E+01  2.01399E+01  2.01303E+01  2.79406E-01  1.08489E+00 -2.36344E-03 -7.97362E-01 -2.73888E-04 -4.26906E-04  1.39145E-04  1.96050E-03  3.78551E+00  4.19225E-04  1.75705E-05 -1.13983E-05  2.63942E-06  1.50000E+01
  2.04321E+01  2.01248E+01  2.01204E+01  2.93597E-01  1.10813E+00 -2.16513E-03 -8.07906E-01 -2.30015E-04 -3.51252E-04  1.05819E-04  1.10527E-03  3.15621E+00 -2.32331E-03  1.42462E-05 -9.62107E-06  1.68397E-06  1.50000E+01
  2.04475E+01  2.01112E+01  2.01114E+01  3.06480E-01  1.12867E+00 -1.14307E-03 -8.15862E-01 -2.00491E-04 -3.02644E-04  8.29082E-05  2.07895E-03  2.76600E+00  6.28161E-04  1.21519E-05 -8.44762E-06  1.05031E-06  1.50000E+01
  2.04459E+01  2.01064E+01  2.00873E+01  3.11487E-01  1.12708E+00 -8.73938E-04 -7.95809E-01 -2.00761E-04 -3.04225E-04  6.41914E-05  2.78340E-03  2.77859E+00 -8.94969E-04  1.15798E-05 -8.09023E-06  8.36029E-07  1.50000E+01
  2.04258E+01  2.01143E+01  2.00503E+01  3.04914E-01  1.10200E+00 -4.80545E-04 -7.33715E-01 -2.48029E-04 -3.83649E-04  4.79202E-05  1.94782E-03  3.44180E+00  3.14057E-04  1.32399E-05 -9.07700E-06  9.26828E-07  1.50000E+01
  2.04104E+01  2.01273E+01  2.00670E+01  2.93021E-01  1.08111E+00 -1.32463E-03 -7.42351E-01 -2.74763E-04 -4.32232E-04  7.41172E-05  2.40638E-03  3.80716E+00 -9.05846E-04  1.51731E-05 -1.01323E-05  1.47836E-06  1.50000E+01
  2.04079E+01  2.01251E+01  2.00378E+01  2.95438E-01  1.07826E+00 -7.77119E-04 -7.58493E-01 -2.56333E-04 -4.03369E-04  3.90672E-05  2.39719E-03  3.56923E+00 -3.23085E-04  1.32102E-05 -8.90275E-06  8.61455E-07  1.50000E+01
  2.04328E+01  2.01332E+01  2.01468E+01  2.84728E-01  1.10810E+00 -2.40096E-03 -8.14909E-01 -2.47336E-04 -3.77535E-04  1.38218E-04  1.37972E-03  3.39781E+00 -6.98480E-04  1.60856E-05 -1.06400E-05  2.33355E-06  1.50000E+01
  2.04485E+01  2.01181E+01  2.01361E+01  2.98930E-01  1.12946E+00 -1.76811E-03 -8.17144E-01 -2.31944E-04 -3.48672E-04  1.17043E-04  7.99865E-04  3.19249E+00 -7.93830E-04  1.46946E-05 -1.01018E-05  1.61632E-06  1.50000E+01
  2.03769E+01  2.01565E+01  2.00980E+01  2.65514E-01  1.03360E+00 -2.66266E-03 -7.03163E-01 -2.62800E-04 -4.27406E-04  1.08730E-04  2.80419E-03  3.66599E+00 -1.91359E-04  1.67075E-05 -1.04754E-05  2.61169E-06  1.50000E+01
  2.03748E+01  2.01516E+01  2.00687E+01  2.71054E-01  1.03210E+00 -2.02110E-03 -6.87701E-01 -2.56633E-04 -4.18690E-04  7.50439E-05  2.98798E-03  3.60680E+00 -1.68068E-04  1.52903E-05 -9.76456E-06  1.87465E-06  1.50000E+01
  2.03579E+01  2.01655E+01  2.00831E+01  2.57758E-01  1.00764E+00 -2.70241E-03 -6.84576E-01 -2.43316E-04 -4.04299E-04  8.86097E-05  3.05415E-03  3.44422E+00 -1.95168E-04  1.53394E-05 -9.50276E-06  2.26754E-06  1.50000E+01
  2.03964E+01  2.01476E+01  2.01134E+01  2.73162E-01  1.05991E+00 -2.53126E-03 -7.47079E-01 -2.87540E-04 -4.56952E-04  1.31918E-04  3.20102E-03  3.98987E+00 -2.55684E-04  1.83878E-05 -1.17276E-05  2.83089E-06  1.50000E+01
  2.03792E+01  2.01634E+01  2.01267E+01  2.57766E-01  1.03490E+00 -3.26049E-03 -7.07079E-01 -2.56214E-04 -4.14098E-04  1.36329E-04  2.59085E-03  3.57537E+00 -3.24123E-04  1.74210E-05 -1.05994E-05  3.45473E-06  1.50000E+01
  2.03982E+01  2.01558E+01  2.01423E+01  2.63995E-01  1.06060E+00 -3.01039E-03 -7.53738E-01 -2.60188E-04 -4.11293E-04  1.49895E-04  2.13981E-03  3.61276E+00 -1.06163E-05  1.76958E-05 -1.09523E-05  3.47352E-06  1.50000E+01
  2.03941E+01  2.01416E+01  2.00834E+01  2.79783E-01  1.05826E+00 -1.97191E-03 -7.28538E-01 -2.89051E-04 -4.61379E-04  9.88624E-05  2.99384E-03  4.00005E+00 -1.76598E-04  1.69682E-05 -1.10312E-05  2.07718E-06  1.50000E+01
  2.03915E+01  2.01380E+01  2.00536E+01  2.83645E-01  1.05574E+00 -1.41924E-03 -7.33962E-01 -2.60825E-04 -4.17546E-04  5.78705E-05  2.57064E-03  3.65848E+00 -3.58643E-04  1.42431E-05 -9.37332E-06  1.26260E-06  1.50000E+01
  2.04619E+01  2.00977E+01  2.00995E+01  3.18706E-01  1.14762E+00 -5.97403E-04 -8.16023E-01 -2.25914E-04 -3.38941E-04  8.11134E-05  1.91604E-03  3.10244E+00 -1.53490E-05  1.32855E-05 -9.39184E-06  8.85017E-07  1.50000E+01
  2.04601E+01  2.00935E+01  2.00737E+01  3.22887E-01  1.14572E+00 -3.82096E-04 -8.07684E-01 -2.34644E-04 -3.52880E-04  6.21053E-05  2.29201E-03  3.21063E+00 -4.91616E-04  1.31927E-05 -9.33697E-06  7.80507E-07  1.50000E+01
  2.04636E+01  2.01034E+01  2.01250E+01  3.12698E-01  1.14949E+00 -8.61933E-04 -8.21013E-01 -2.31607E-04 -3.45673E-04  1.04613E-04  1.83381E-03  3.19389E+00  2.63677E-04  1.43558E-05 -1.01626E-05  1.03287E-06  1.50000E+01
  2.04432E+01  2.01037E+01  2.00619E+01  3.14065E-01  1.12445E+00 -3.14926E-04 -7.75137E-01 -2.30930E-04 -3.51042E-04  5.25435E-05  1.12792E-03  3.22688E+00  4.51486E-04  1.28553E-05 -8.99091E-06  8.40767E-07  1.50000E+01
  2.04583E+01  2.00909E+01  2.00471E+01  3.25459E-01  1.14404E+00  1.94568E-05 -7.75614E-01 -2.42191E-04 -3.64841E-04  4.10186E-05  1.82740E-03  3.38098E+00  1.54864E-04  1.31352E-05 -9.31669E-06  6.37010E-07  1.50000E+01
  2.03900E+01  2.01361E+01  2.00244E+01  2.85809E-01  1.05414E+00 -7.78208E-04 -7.18079E-01 -2.46487E-04 -3.95210E-04  2.53330E-05  2.82880E-03  3.51346E+00 -2.82661E-04  1.28757E-05 -8.55564E-06  6.18301E-07  1.50000E+01
  2.04241E+01  2.01128E+01  2.00221E+01  3.06512E-01  1.10004E+00 -1.52138E-04 -7.81926E-01 -2.51218E-04 -3.89271E-04  2.18187E-05  2.42417E-03  3.49152E+00  1.69867E-05  1.26038E-05 -8.67019E-06  5.32800E-07  1.50000E+01
  2.04067E+01  2.01242E+01  2.00090E+01  2.96571E-01  1.07691E+00 -2.23992E-04 -7.62880E-01 -2.48799E-04 -3.91985E-04  9.46372E-06  2.75796E-03  3.49667E+00 -1.82214E-04  1.24915E-05 -8.45653E-06  2.56566E-07  1.50000E+01
  2.03818E+01  2.01718E+01  2.01545E+01  2.48235E-01  1.03622E+00 -3.74656E-03 -7.65883E-01 -2.42971E-04 -3.90041E-04  1.57143E-04  2.24475E-03  3.43873E+00 -2.35081E-04  1.77690E-05 -1.02990E-05  4.54122E-06  1.50000E+01
  2.04007E+01  2.01650E+01  2.01696E+01  2.53841E-01  1.06195E+00 -3.46345E-03 -7.85180E-01 -2.46465E-04 -3.86662E-04  1.69044E-04  2.03308E-03  3.45072E+00 -1.69184E-04  1.79793E-05 -1.06579E-05  4.36276E-06  1.50000E+01
  2.07435E+01  1.99856E+01  1.96659E+01  4.12843E-01  1.50709E+00 -9.77455E-03 -8.11201E-01 -2.61177E-04 -3.77039E-04 -2.46192E-04  1.76433E-03  4.74305E+00 -4.58881E-04  2.82338E-05 -2.91218E-05  7.97959E-06  1.50000E+01
  2.07251E+01  1.99900E+01  1.96813E+01  4.08174E-01  1.48223E+00 -9.66042E-03 -8.73684E-01 -2.86000E-04 -3.98223E-04 -2.50732E-04  1.71077E-03  4.66079E+00 -3.49293E-04  2.70236E-05 -2.76016E-05  6.95745E-06  1.50000E+01
  2.07378E+01  1.99716E+01  1.96927E+01  4.24762E-01  1.49478E+00 -1.02865E-02 -8.37695E-01 -2.62090E-04 -3.79698E-04 -2.23608E-04  1.79547E-03  4.69990E+00 -4.35920E-04  2.81181E-05 -2.84928E-05  8.15882E-06  1.50000E+01
  2.07197E+01  1.99765E+01  1.97084E+01  4.19735E-01  1.47080E+00 -9.88209E-03 -8.83189E-01 -2.88226E-04 -4.02043E-04 -2.28214E-04  1.76027E-03  4.62141E+00 -3.24800E-04  2.65673E-05 -2.66132E-05  7.05537E-06  1.50000E+01
  2.07327E+01  1.99586E+01  1.97202E+01  4.35713E-01  1.48330E+00 -1.05143E-02 -8.15801E-01 -2.66955E-04 -3.85948E-04 -2.04078E-04  1.82763E-03  4.65997E+00 -4.04651E-04  2.83124E-05 -2.79764E-05  8.20133E-06  1.50000E+01
  2.08005E+01  1.99765E+01  1.96205E+01  4.25168E-01  1.58634E+00 -7.27341E-03 -3.89473E-01 -6.99993E-05 -1.72516E-04 -1.06533E-04  2.20398E-03  5.00357E+00 -5.29344E-04  3.25278E-05 -3.26022E-05  1.06398E-05  1.50000E+01
  2.07812E+01  1.99787E+01  1.96354E+01  4.21472E-01  1.55915E+00 -8.63127E-03 -6.13722E-01 -1.68750E-04 -2.88696E-04 -1.96361E-04  2.06095E-03  4.91462E+00 -5.38375E-04  3.01554E-05 -3.11345E-05  9.99053E-06  1.50000E+01
  2.07938E+01  1.99605E+01  1.96464E+01  4.38438E-01  1.57134E+00 -9.06805E-03 -3.59905E-01 -9.19931E-05 -1.96453E-04 -1.15077E-04  2.17295E-03  4.95420E+00 -5.87698E-04  3.07942E-05 -3.09830E-05  1.07085E-05  1.50000E+01
  2.04657E+01  2.01106E+01  2.01506E+01  3.05084E-01  1.15174E+00 -1.29725E-03 -8.51528E-01 -2.47405E-04 -3.66494E-04  1.34076E-04  1.55773E-03  3.35681E+00 -4.37741E-04  1.58946E-05 -1.11706E-05  1.46601E-06  1.50000E+01
  2.07876E+01  1.99456E+01  1.96731E+01  4.50657E-01  1.55705E+00 -1.05012E-02 -5.34117E-01 -1.38768E-04 -2.59585E-04 -1.46647E-04  2.17682E-03  4.90723E+00 -5.97933E-04  3.38015E-05 -3.26344E-05  1.07212E-05  1.50000E+01
  2.08066E+01  1.99428E+01  1.96577E+01  4.54894E-01  1.58318E+00 -9.64645E-03 -4.95457E-01 -5.64981E-05 -1.56846E-04 -7.61464E-05  2.24638E-03  4.99318E+00 -6.71707E-04  3.59611E-05 -3.48964E-05  1.27257E-05  1.50000E+01
  2.04740E+01  2.00782E+01  2.00326E+01  3.36600E-01  1.16389E+00  2.82945E-04 -8.08821E-01 -2.56205E-04 -3.81073E-04  2.90604E-05  2.26121E-03  3.48009E+00  9.16280E-05  1.30903E-05 -9.41220E-06  3.62060E-07  1.50000E+01
  2.04573E+01  2.00894E+01  2.00197E+01  3.26963E-01  1.14293E+00  3.06814E-04 -7.88256E-01 -2.43932E-04 -3.67902E-04  1.72469E-05  2.24565E-03  3.46902E+00  2.46273E-04  1.26694E-05 -9.00101E-06  3.46612E-07  1.50000E+01
  2.04168E+01  2.01489E+01  2.01580E+01  2.69667E-01  1.08543E+00 -2.83634E-03 -8.10856E-01 -2.54998E-04 -3.94737E-04  1.57950E-04  1.76971E-03  3.50721E+00 -8.15947E-05  1.73870E-05 -1.09733E-05  3.24075E-06  1.50000E+01
  2.04196E+01  2.01585E+01  2.01846E+01  2.59287E-01  1.08728E+00 -3.20715E-03 -8.41319E-01 -2.49720E-04 -3.83169E-04  1.80531E-04  2.16480E-03  3.44005E+00 -3.06567E-04  1.80034E-05 -1.09479E-05  4.08779E-06  1.50000E+01
  2.04351E+01  2.01422E+01  2.01732E+01  2.75212E-01  1.10976E+00 -2.64889E-03 -8.42443E-01 -2.50126E-04 -3.79313E-04  1.64549E-04  1.96358E-03  3.43277E+00 -4.18720E-04  1.72156E-05 -1.11630E-05  2.91084E-06  1.50000E+01
  2.03894E+01  2.01358E+01  1.99956E+01  2.86252E-01  1.05336E+00 -7.94966E-05 -7.18677E-01 -2.40128E-04 -3.85124E-04 -3.87250E-06  2.95377E-03  3.43522E+00 -1.87269E-04  1.23087E-05 -8.20203E-06 -7.74648E-08  1.50000E+01
  2.04235E+01  2.01127E+01  1.99938E+01  3.06797E-01  1.09919E+00  2.54617E-04 -7.83730E-01 -2.49747E-04 -3.87735E-04 -5.79263E-06  2.77400E-03  3.48348E+00 -1.25714E-05  1.24111E-05 -8.53777E-06 -2.09232E-07  1.50000E+01
  2.04065E+01  2.01247E+01  1.99805E+01  2.96091E-01  1.07641E+00  3.61022E-04 -7.63458E-01 -2.46587E-04 -3.88537E-04 -1.88163E-05  2.89345E-03  3.44930E+00 -9.34306E-05  1.23647E-05 -8.35737E-06 -4.69964E-07  1.50000E+01
  2.07413E+01  1.99299E+01  1.97606E+01  4.60577E-01  1.48498E+00 -1.09869E-02 -7.55916E-01 -2.28680E-04 -3.54357E-04 -1.50827E-04  1.90071E-03  4.66159E+00 -4.44105E-04  3.05961E-05 -2.86662E-05  8.95025E-06  1.50000E+01
  2.07589E+01  1.99242E+01  1.97445E+01  4.66376E-01  1.50760E+00 -1.16882E-02 -6.81545E-01 -1.92842E-04 -3.20133E-04 -1.40898E-04  1.97689E-03  4.73998E+00 -5.38200E-04  3.24693E-05 -3.06211E-05  1.04316E-05  1.50000E+01
  2.07457E+01  1.99412E+01  1.97322E+01  4.51273E-01  1.49556E+00 -1.11122E-02 -7.64567E-01 -2.34688E-04 -3.58091E-04 -1.74197E-04  1.90077E-03  4.69898E+00 -4.73126E-04  2.95724E-05 -2.87348E-05  9.25815E-06  1.50000E+01
  2.04786E+01  2.00889E+01  2.01127E+01  3.25971E-01  1.16892E+00 -2.60737E-04 -8.37353E-01 -2.45347E-04 -3.63717E-04  9.72770E-05  2.18357E-03  3.35010E+00  4.93344E-05  1.48499E-05 -1.07094E-05  6.93321E-07  1.50000E+01
  2.01358E+01  2.03387E+01  2.01911E+01  6.11132E-02  6.24962E-01 -5.32816E-03 -6.41335E-01 -1.50020E-04 -3.62105E-04  2.08429E-04  3.29811E-03  1.96690E+00 -2.39482E-03  3.29978E-05 -1.42254E-05  5.51465E-06  1.50000E+01
  2.01189E+01  2.03538E+01  2.02017E+01  3.98001E-02  5.87242E-01 -3.21833E-03 -1.12019E+00 -1.88894E-04 -4.77254E-04  2.81918E-04  2.70490E-03  1.84946E+00 -2.74201E-03  4.52810E-05 -2.00587E-05  5.03431E-06  1.50000E+01
  2.01396E+01  2.03511E+01  2.02146E+01  4.33896E-02  6.19033E-01 -3.17140E-03 -1.12380E+00 -2.06954E-04 -4.88842E-04  3.07328E-04  2.49140E-03  1.95368E+00 -2.43645E-03  4.48617E-05 -2.07479E-05  4.77660E-06  1.50000E+01
  2.07950E+01  1.99149E+01  1.97125E+01  4.77121E-01  1.55520E+00 -1.22131E-02  1.68136E-01 -1.76118E-05 -1.16932E-04 -3.19151E-05  2.11067E-03  4.90146E+00 -8.16222E-04  3.89860E-05 -3.66290E-05  1.43249E-05  1.50000E+01
  2.08135E+01  1.99114E+01  1.96967E+01  4.81890E-01  1.58017E+00 -1.19183E-02 -1.81568E-01 -3.71737E-06 -6.00154E-05 -1.63757E-05  2.12331E-02  2.52783E+00 -9.74602E-04  2.24046E-05 -2.09001E-05  8.29831E-06  1.50000E+01
  2.08005E+01  1.99283E+01  1.96848E+01  4.66557E-01  1.56876E+00 -1.11654E-02 -4.25125E-01 -9.51544E-05 -2.23118E-04 -1.08584E-04  2.24090E-03  4.94615E+00 -7.03721E-04  4.17528E-05 -3.92893E-05  1.41669E-05  1.50000E+01
  2.07507E+01  1.99536E+01  1.97044E+01  4.40946E-01  1.50710E+00 -1.08907E-02 -7.20301E-01 -2.34165E-04 -3.56992E-04 -1.95535E-04  1.88413E-03  4.73896E+00 -4.97919E-04  2.95589E-05 -2.94540E-05  9.28527E-06  1.50000E+01
  2.07637E+01  1.99362E+01  1.97163E+01  4.56686E-01  1.51917E+00 -1.14941E-02 -6.49028E-01 -1.88800E-04 -3.15092E-04 -1.57150E-04  1.99082E-03  4.77939E+00 -5.59280E-04  3.09534E-05 -3.00366E-05  1.01787E-05  1.50000E+01
  2.03894E+01  2.01370E+01  1.99672E+01  2.84902E-01  1.05315E+00  6.57009E-04 -7.18323E-01 -2.38993E-04 -3.83473E-04 -3.18732E-05  2.87404E-03  3.38750E+00 -5.93460E-05  1.26293E-05 -8.36636E-06 -7.06061E-07  1.50000E+01
  2.03731E+01  2.01486E+01  2.00395E+01  2.74440E-01  1.03070E+00 -1.34171E-03 -7.17289E-01 -2.49173E-04 -4.05567E-04  4.22186E-05  2.97017E-03  3.49098E+00 -2.71169E-04  1.33258E-05 -8.65285E-06  1.05146E-06  1.50000E+01
  2.03722E+01  2.01473E+01  2.00106E+01  2.75914E-01  1.02982E+00 -5.70458E-04 -7.28893E-01 -2.40901E-04 -3.92494E-04  1.14105E-05  3.04439E-03  3.40730E+00 -2.29628E-04  1.23599E-05 -8.09270E-06  2.87639E-07  1.50000E+01
  2.07880E+01  1.99950E+01  1.96098E+01  4.07732E-01  1.57397E+00 -7.01744E-03 -7.98601E-01 -1.67456E-04 -2.91007E-04 -2.18208E-04  2.10929E-03  4.96376E+00 -4.82901E-04  3.04722E-05 -3.12829E-05  9.39046E-06  1.50000E+01
  2.07149E+01  1.99642E+01  1.97360E+01  4.30326E-01  1.46022E+00 -9.85501E-03 -8.61410E-01 -2.89831E-04 -4.06761E-04 -2.06062E-04  1.79359E-03  4.58259E+00 -2.99430E-04  2.69494E-05 -2.62450E-05  7.07444E-06  1.50000E+01
  2.07280E+01  1.99468E+01  1.97481E+01  4.45664E-01  1.47271E+00 -1.04461E-02 -8.17166E-01 -2.63788E-04 -3.85658E-04 -1.80281E-04  1.83193E-03  4.62150E+00 -3.74119E-04  2.81200E-05 -2.69366E-05  7.85387E-06  1.50000E+01
  2.03562E+01  2.01614E+01  2.00542E+01  2.62439E-01  1.00656E+00 -1.93566E-03 -6.78596E-01 -2.40712E-04 -3.99658E-04  5.73418E-05  3.21657E-03  3.40472E+00 -1.95292E-04  1.39111E-05 -8.79788E-06  1.41062E-06  1.50000E+01
  2.03379E+01  2.01714E+01  2.00400E+01  2.53566E-01  9.81089E-01 -1.69346E-03 -6.58337E-01 -2.19007E-04 -3.72569E-04  4.02019E-05  3.36743E-03  3.25564E+00 -1.69998E-04  1.32215E-05 -8.25759E-06  1.12053E-06  1.50000E+01
  2.03392E+01  2.01746E+01  2.00684E+01  2.49790E-01  9.81792E-01 -2.62066E-03 -6.74165E-01 -2.27023E-04 -3.85690E-04  7.07341E-05  3.34578E-03  3.28420E+00 -2.09501E-04  1.43890E-05 -8.81552E-06  1.88368E-06  1.50000E+01
  2.04768E+01  2.00839E+01  2.00865E+01  3.31011E-01  1.16681E+00 -1.28326E-04 -8.08121E-01 -2.46746E-04 -3.67099E-04  7.49100E-05  2.22102E-03  3.34863E+00 -9.19830E-05  1.42224E-05 -1.02334E-05  5.86970E-07  1.50000E+01
  2.04752E+01  2.00804E+01  2.00598E+01  3.34524E-01  1.16510E+00  3.21102E-05 -8.07976E-01 -2.52911E-04 -3.76486E-04  5.29627E-05  2.38708E-03  3.41286E+00 -2.21035E-04  1.37688E-05 -9.89231E-06  5.48366E-07  1.50000E+01
  2.04899E+01  2.00659E+01  2.00183E+01  3.47323E-01  1.18362E+00  4.25801E-04 -8.12124E-01 -2.69669E-04 -3.96150E-04  1.64644E-05  2.37450E-03  3.55817E+00  6.83560E-05  1.32258E-05 -9.62852E-06  1.83343E-07  1.50000E+01
  2.04734E+01  2.00775E+01  2.00050E+01  3.37389E-01  1.16324E+00  4.72530E-04 -8.02040E-01 -2.57851E-04 -3.83444E-04  4.15613E-06  2.40141E-03  3.52318E+00  2.06140E-04  1.27801E-05 -9.19690E-06  4.60691E-08  1.50000E+01
  2.07690E+01  1.99493E+01  1.96887E+01  4.45963E-01  1.53167E+00 -1.09056E-02 -6.62140E-01 -1.91420E-04 -3.16729E-04 -1.78108E-04  2.01025E-03  4.82219E+00 -5.61438E-04  3.06753E-05 -3.03464E-05  9.94491E-06  1.50000E+01
  2.07748E+01  1.99635E+01  1.96617E+01  4.34222E-01  1.54503E+00 -9.94131E-03 -5.96060E-01 -1.75583E-04 -2.95972E-04 -1.82708E-04  2.03533E-03  4.86794E+00 -5.64267E-04  3.05301E-05 -3.08642E-05  9.97052E-06  1.50000E+01
  2.07069E+01  1.99949E+01  1.96968E+01  4.03368E-01  1.45805E+00 -9.20864E-03 -9.36645E-01 -3.03783E-04 -4.12189E-04 -2.49804E-04  1.72532E-03  4.58187E+00 -2.31889E-04  2.57152E-05 -2.60609E-05  6.27660E-06  1.50000E+01
  2.03626E+01  2.01789E+01  2.01394E+01  2.42334E-01  1.01007E+00 -4.01809E-03 -7.06770E-01 -2.40171E-04 -3.94283E-04  1.45498E-04  2.65391E-03  3.37038E+00 -3.58444E-04  1.71804E-05 -9.88840E-06  4.21084E-06  1.50000E+01
  2.03463E+01  2.01945E+01  2.01518E+01  2.26452E-01  9.84770E-01 -4.79089E-03 -7.15239E-01 -2.27742E-04 -3.80132E-04  1.55325E-04  2.67611E-03  3.24075E+00 -4.71999E-04  1.76300E-05 -9.49975E-06  5.16771E-06  1.50000E+01
  2.03656E+01  2.01878E+01  2.01665E+01  2.32043E-01  1.01143E+00 -4.49314E-03 -7.65205E-01 -2.34142E-04 -3.81076E-04  1.68734E-04  2.44170E-03  3.31607E+00 -3.93083E-04  1.79738E-05 -9.79597E-06  5.32654E-06  1.50000E+01
  2.07819E+01  1.99318E+01  1.97005E+01  4.61818E-01  1.54358E+00 -1.15277E-02 -4.95976E-01 -1.25125E-04 -2.47002E-04 -1.22302E-04  2.11302E-03  4.86222E+00 -6.39485E-04  3.57405E-05 -3.38825E-05  1.13643E-05  1.50000E+01
  2.07309E+01  2.00044E+01  1.96548E+01  3.95683E-01  1.49444E+00 -9.20429E-03 -9.03506E-01 -2.91095E-04 -4.01010E-04 -2.78896E-04  1.67982E-03  4.70332E+00 -3.65669E-04  2.72674E-05 -2.83076E-05  6.78360E-06  1.50000E+01
  2.07124E+01  2.00087E+01  1.96702E+01  3.91212E-01  1.46942E+00 -9.00206E-03 -9.17995E-01 -3.09011E-04 -4.15342E-04 -2.78509E-04  1.67056E-03  4.62086E+00 -2.42489E-04  2.66455E-05 -2.73440E-05  6.02914E-06  1.50000E+01
  2.04383E+01  2.01521E+01  2.01992E+01  2.64648E-01  1.11235E+00 -2.87459E-03 -8.83734E-01 -2.55858E-04 -3.84328E-04  1.93471E-04  2.42304E-03  3.46057E+00 -4.45631E-04  1.84276E-05 -1.15055E-05  3.91758E-06  1.50000E+01
  2.04535E+01  2.01354E+01  2.01879E+01  2.80803E-01  1.13396E+00 -2.25658E-03 -8.63977E-01 -2.56667E-04 -3.81466E-04  1.77800E-04  2.28954E-03  3.46105E+00 -4.82073E-04  1.78385E-05 -1.18329E-05  2.85541E-06  1.50000E+01
  2.04231E+01  2.01692E+01  2.02105E+01  2.47780E-01  1.08978E+00 -3.46921E-03 -9.21043E-01 -2.56590E-04 -3.89097E-04  2.10747E-04  2.37286E-03  3.44124E+00 -4.47798E-04  1.92711E-05 -1.13757E-05  4.82789E-06  1.50000E+01
  2.04236E+01  2.01140E+01  1.99656E+01  3.05471E-01  1.09903E+00  7.02474E-04 -7.62563E-01 -2.50811E-04 -3.89583E-04 -3.32725E-05  2.86751E-03  3.46833E+00  4.20884E-05  1.28598E-05 -8.79713E-06 -7.88637E-07  1.50000E+01
  2.07622E+01  1.99818E+01  1.96505E+01  4.17312E-01  1.53272E+00 -9.45528E-03 -7.41022E-01 -2.26110E-04 -3.46829E-04 -2.33316E-04  1.88923E-03  4.82830E+00 -5.24696E-04  2.95390E-05 -3.06261E-05  9.14722E-06  1.50000E+01
  2.07686E+01  1.99974E+01  1.96246E+01  4.04052E-01  1.54668E+00 -8.28971E-03 -8.64527E-01 -2.24645E-04 -3.45101E-04 -2.55744E-04  1.90458E-03  4.87444E+00 -5.13048E-04  2.87829E-05 -3.00159E-05  8.50758E-06  1.50000E+01
  2.07496E+01  2.00006E+01  1.96396E+01  3.99992E-01  1.52018E+00 -8.99823E-03 -9.12601E-01 -2.64068E-04 -3.78552E-04 -2.72901E-04  1.75954E-03  4.78828E+00 -4.66258E-04  2.82310E-05 -2.95490E-05  7.77979E-06  1.50000E+01
  2.06941E+01  2.00136E+01  1.96855E+01  3.86620E-01  1.44499E+00 -8.49570E-03 -9.68236E-01 -3.20624E-04 -4.24752E-04 -2.74110E-04  1.71620E-03  4.54166E+00 -1.27230E-04  2.59391E-05 -2.62736E-05  5.44699E-06  1.50000E+01
  2.04958E+01  2.00802E+01  2.01265E+01  3.33180E-01  1.19062E+00  1.43151E-04 -8.40483E-01 -2.63130E-04 -3.84347E-04  1.13787E-04  2.46380E-03  3.50462E+00 -1.27731E-05  1.58993E-05 -1.17415E-05  3.59494E-07  1.50000E+01
  2.04808E+01  2.00953E+01  2.01388E+01  3.19402E-01  1.17145E+00 -4.73193E-04 -8.39085E-01 -2.55062E-04 -3.74788E-04  1.24234E-04  2.26927E-03  3.41538E+00  4.95225E-05  1.57389E-05 -1.13533E-05  9.28321E-07  1.50000E+01
  2.03601E+01  2.01714E+01  2.01116E+01  2.51004E-01  1.00883E+00 -3.40614E-03 -6.88475E-01 -2.44101E-04 -4.03761E-04  1.18863E-04  2.88734E-03  3.42925E+00 -2.51932E-04  1.64975E-05 -9.92534E-06  3.15437E-06  1.50000E+01
  2.03411E+01  2.01796E+01  2.00967E+01  2.43919E-01  9.82678E-01 -3.46173E-03 -6.55407E-01 -2.30352E-04 -3.90243E-04  1.00875E-04  3.14611E-03  3.29062E+00 -2.64697E-04  1.55707E-05 -9.26159E-06  2.86532E-06  1.50000E+01
  2.01226E+01  2.03667E+01  2.02248E+01  2.09983E-02  5.79350E-01  0.00000E+00 -6.15135E-01 -8.78036E-05 -2.33600E-04  1.45546E-04  6.69457E+00 -2.30115E+01 -2.94261E+01  2.63089E-05 -1.25567E-05  1.29953E-06  1.50000E+01
  2.08259E+01  1.99408E+01  1.96426E+01  4.58579E-01  1.60999E+00 -8.31926E-03  1.03364E-01  2.43407E-05 -9.92219E-06  1.47227E-05  2.12792E-02  2.57825E+00  2.78750E-04  1.83143E-05 -1.78611E-05  6.88955E-06  1.50000E+01
  2.08132E+01  1.99584E+01  1.96315E+01  4.42126E-01  1.59835E+00 -7.70327E-03  1.38194E-01  3.47802E-05 -3.04522E-05  1.61269E-05  2.20734E-03  5.04260E+00 -6.67686E-04  3.26992E-05 -3.26523E-05  1.21091E-05  1.50000E+01
  2.07184E+01  2.00236E+01  1.96441E+01  3.78167E-01  1.48153E+00 -8.60702E-03 -9.86691E-01 -3.12720E-04 -4.16233E-04 -3.06543E-04  1.62870E-03  4.66305E+00 -2.51974E-04  2.62225E-05 -2.72605E-05  5.56520E-06  1.50000E+01
  2.06998E+01  2.00279E+01  1.96592E+01  3.73884E-01  1.45629E+00 -8.31157E-03 -1.00674E+00 -3.27211E-04 -4.27295E-04 -3.03970E-04  1.65448E-03  4.58031E+00 -1.28202E-04  2.62947E-05 -2.67698E-05  4.81452E-06  1.50000E+01
  2.03720E+01  2.01476E+01  1.99821E+01  2.75494E-01  1.02944E+00  2.68634E-04 -7.29805E-01 -2.37431E-04 -3.86654E-04 -1.76000E-05  2.98377E-03  3.34767E+00 -1.09904E-04  1.21295E-05 -7.93703E-06 -4.58364E-07  1.50000E+01
  2.04834E+01  2.01030E+01  2.01649E+01  3.11403E-01  1.17453E+00 -7.56218E-04 -8.56809E-01 -2.61751E-04 -3.81339E-04  1.50775E-04  2.07671E-03  3.49153E+00 -3.04450E-04  1.67531E-05 -1.20546E-05  1.27150E-06  1.50000E+01
  2.03848E+01  2.01814E+01  2.01813E+01  2.37415E-01  1.03782E+00 -4.15579E-03 -8.11804E-01 -2.37678E-04 -3.77765E-04  1.80010E-04  2.26005E-03  3.36761E+00 -3.21555E-04  1.82751E-05 -1.01491E-05  5.28974E-06  1.50000E+01
  2.04040E+01  2.01752E+01  2.01959E+01  2.42646E-01  1.06392E+00 -3.82424E-03 -8.74029E-01 -2.47155E-04 -3.83558E-04  1.95445E-04  2.23472E-03  3.40307E+00 -3.58170E-04  1.87063E-05 -1.06631E-05  5.12201E-06  1.50000E+01
  2.01526E+01  2.03237E+01  2.01801E+01  8.14203E-02  6.60457E-01 -6.55295E-03 -5.99516E-01 -1.26330E-04 -2.98468E-04  1.61610E-04  3.26868E-03  2.08268E+00 -1.89584E-03  2.87980E-05 -1.21646E-05  6.24204E-06  1.50000E+01
  2.01324E+01  2.03276E+01  2.01670E+01  7.69400E-02  6.29282E-01 -6.35017E-03 -4.71277E-01 -1.12844E-04 -2.85552E-04  1.42304E-04  3.84264E-03  1.97304E+00 -2.05315E-03  2.95496E-05 -1.29397E-05  5.08286E-06  1.50000E+01
  2.07756E+01  2.00139E+01  1.95993E+01  3.89871E-01  1.56132E+00 -6.87401E-03 -8.67039E-01 -2.22894E-04 -3.47408E-04 -2.80885E-04  1.94470E-03  4.92331E+00 -4.77821E-04  2.99919E-05 -3.06778E-05  7.73560E-06  1.50000E+01
  2.03197E+01  2.01816E+01  2.00260E+01  2.44275E-01  9.55389E-01 -1.29674E-03 -6.42217E-01 -2.02683E-04 -3.53867E-04  2.53207E-05  3.38795E-03  3.13029E+00 -1.14742E-04  1.27564E-05 -7.85283E-06  7.93134E-07  1.50000E+01
  2.03207E+01  2.01840E+01  2.00542E+01  2.41442E-01  9.55825E-01 -2.39314E-03 -6.48925E-01 -2.08606E-04 -3.63360E-04  5.33717E-05  3.44147E-03  3.15105E+00 -2.08642E-04  1.38082E-05 -8.38841E-06  1.47613E-06  1.50000E+01
  2.04937E+01  2.00745E+01  2.00999E+01  3.38873E-01  1.18804E+00  2.06753E-04 -8.26983E-01 -2.57520E-04 -3.79141E-04  8.81855E-05  2.42368E-03  3.48298E+00 -4.23713E-05  1.53198E-05 -1.12393E-05  3.16797E-07  1.50000E+01
  2.04920E+01  2.00702E+01  2.00730E+01  3.43113E-01  1.18599E+00  2.48528E-04 -8.03084E-01 -2.59617E-04 -3.82741E-04  6.48511E-05  2.41785E-03  3.49266E+00 -8.66277E-05  1.45739E-05 -1.06243E-05  3.94476E-07  1.50000E+01
  2.03496E+01  2.02041E+01  2.01785E+01  2.15251E-01  9.85946E-01 -5.19796E-03 -7.90684E-01 -2.25075E-04 -3.71748E-04  1.79709E-04  2.41779E-03  3.21546E+00 -5.09219E-04  1.85068E-05 -9.31572E-06  6.37139E-06  1.50000E+01
  2.03336E+01  2.02206E+01  2.01903E+01  1.97831E-01  9.59686E-01 -5.81382E-03 -8.33644E-01 -2.11811E-04 -3.56855E-04  1.87000E-04  2.35339E-03  3.11410E+00 -6.15519E-04  1.94054E-05 -9.08824E-06  7.23614E-06  1.50000E+01
  2.03532E+01  2.02150E+01  2.02045E+01  2.02651E-01  9.87229E-01 -5.41543E-03 -8.68827E-01 -2.27595E-04 -3.71575E-04  2.06935E-04  2.22706E-03  3.19663E+00 -5.56512E-04  1.98583E-05 -9.41104E-06  7.40356E-06  1.50000E+01
  2.06813E+01  2.00327E+01  1.96744E+01  3.69485E-01  1.43155E+00 -7.75160E-03 -1.00999E+00 -3.35408E-04 -4.35188E-04 -2.98607E-04  1.71800E-03  4.50047E+00 -2.32108E-05  2.55531E-05 -2.55295E-05  4.19128E-06  1.50000E+01
  2.03550E+01  2.01591E+01  2.00255E+01  2.65040E-01  1.00575E+00 -1.09674E-03 -7.24342E-01 -2.34289E-04 -3.88725E-04  2.65908E-05  3.22846E-03  3.34650E+00 -2.00600E-04  1.25582E-05 -8.04284E-06  7.33049E-07  1.50000E+01
  2.03545E+01  2.01586E+01  1.99969E+01  2.65628E-01  1.00528E+00 -1.77129E-04 -7.26937E-01 -2.28357E-04 -3.79066E-04 -2.65333E-06  3.11891E-03  3.29417E+00 -1.23971E-04  1.20747E-05 -7.77056E-06 -1.00907E-07  1.50000E+01
  2.04907E+01  2.00673E+01  2.00458E+01  3.45922E-01  1.18451E+00  3.20218E-04 -8.00970E-01 -2.64900E-04 -3.90171E-04  4.13263E-05  2.46038E-03  3.52406E+00 -9.25833E-05  1.37390E-05 -9.98776E-06  4.13000E-07  1.50000E+01
  2.07562E+01  2.00165E+01  1.96140E+01  3.86243E-01  1.53397E+00 -7.98650E-03 -9.08751E-01 -2.60878E-04 -3.76979E-04 -2.96505E-04  1.75308E-03  4.83393E+00 -4.64102E-04  2.80372E-05 -2.91114E-05  6.82294E-06  1.50000E+01
  2.07372E+01  2.00198E+01  1.96290E+01  3.82307E-01  1.50740E+00 -8.53428E-03 -9.57549E-01 -2.90302E-04 -3.99243E-04 -3.04149E-04  1.66129E-03  4.74791E+00 -3.75028E-04  2.70185E-05 -2.82850E-05  6.27970E-06  1.50000E+01
  2.03435E+01  2.01863E+01  2.01246E+01  2.36078E-01  9.83687E-01 -4.19840E-03 -6.89159E-01 -2.29145E-04 -3.86102E-04  1.28771E-04  2.92338E-03  3.27103E+00 -3.60874E-04  1.69533E-05 -9.67670E-06  4.04171E-06  1.50000E+01
  2.03244E+01  2.01940E+01  2.01100E+01  2.29475E-01  9.57121E-01 -4.28018E-03 -6.38778E-01 -2.16069E-04 -3.74120E-04  1.11430E-04  3.09372E-03  3.16053E+00 -4.02009E-04  1.64774E-05 -9.36573E-06  3.59269E-06  1.50000E+01
  2.05219E+01  2.00421E+01  1.99894E+01  3.67524E-01  1.22257E+00  3.15041E-04 -7.99306E-01 -2.81685E-04 -4.07339E-04 -1.02365E-05  2.34992E-03  3.71323E+00  3.14984E-05  1.42562E-05 -1.05970E-05 -7.05188E-08  1.50000E+01
  2.05059E+01  2.00545E+01  1.99759E+01  3.56937E-01  1.20333E+00  3.70030E-04 -7.82502E-01 -2.79769E-04 -4.07415E-04 -2.31234E-05  2.36571E-03  3.66385E+00  1.07333E-04  1.41137E-05 -1.03817E-05 -1.97143E-07  1.50000E+01
  2.05059E+01  2.00538E+01  2.00039E+01  3.57618E-01  1.20317E+00  4.34490E-04 -7.78397E-01 -2.78993E-04 -4.05999E-04  3.15638E-06  2.37268E-03  3.63640E+00  4.53431E-05  1.37186E-05 -1.00928E-05  1.67256E-08  1.50000E+01
  2.07633E+01  2.00334E+01  1.95891E+01  3.71642E-01  1.54843E+00 -6.77659E-03 -9.81588E-01 -2.61215E-04 -3.81522E-04 -3.25922E-04  1.77558E-03  4.88228E+00 -4.36251E-04  2.92182E-05 -2.95951E-05  5.93081E-06  1.50000E+01
  2.05013E+01  2.00956E+01  2.01792E+01  3.17555E-01  1.19748E+00 -1.37219E-04 -8.95515E-01 -2.71080E-04 -3.89601E-04  1.65299E-04  2.21349E-03  3.59342E+00 -2.29998E-04  1.76479E-05 -1.29816E-05  1.10871E-06  1.50000E+01
  2.04983E+01  2.00872E+01  2.01530E+01  3.26044E-01  1.19376E+00  2.01865E-05 -8.68545E-01 -2.68519E-04 -3.88786E-04  1.39926E-04  2.37915E-03  3.54650E+00 -4.84800E-05  1.68109E-05 -1.24104E-05  6.88968E-07  1.50000E+01
  2.03223E+01  2.01881E+01  2.00822E+01  2.36482E-01  9.56408E-01 -3.39885E-03 -6.57318E-01 -2.10870E-04 -3.67104E-04  8.17830E-05  3.31803E-03  3.16229E+00 -3.06210E-04  1.51097E-05 -8.94339E-06  2.42324E-06  1.50000E+01
  2.03728E+01  2.02096E+01  2.02186E+01  2.07370E-01  1.01462E+00 -4.99498E-03 -8.84761E-01 -2.40913E-04 -3.82888E-04  2.25402E-04  2.15754E-03  3.27056E+00 -5.28307E-04  2.02841E-05 -9.95637E-06  7.16390E-06  1.50000E+01
  2.03924E+01  2.02043E+01  2.02328E+01  2.12009E-01  1.04188E+00 -4.56686E-03 -9.23175E-01 -2.55930E-04 -3.95912E-04  2.45210E-04  2.14514E-03  3.33830E+00 -5.41925E-04  2.09445E-05 -1.08960E-05  6.59346E-06  1.50000E+01
  2.03884E+01  2.01923E+01  2.02073E+01  2.25334E-01  1.03971E+00 -4.44048E-03 -8.38391E-01 -2.43175E-04 -3.81741E-04  2.09473E-04  2.22339E-03  3.34482E+00 -4.38642E-04  1.93359E-05 -1.03689E-05  5.91222E-06  1.50000E+01
  2.01123E+01  2.03318E+01  2.01540E+01  7.19576E-02  5.97580E-01 -5.86839E-03 -4.56279E-01 -9.65872E-05 -2.65071E-04  1.17843E-04  4.54824E-03  1.85704E+00 -2.15188E-03  3.19437E-05 -1.46264E-05  3.77460E-06  1.50000E+01
  2.00952E+01  2.03457E+01  2.01652E+01  5.24942E-02  5.61565E-01 -4.80165E-03 -5.30747E-01 -1.04324E-04 -3.01403E-04  1.44303E-04  4.38375E-03  1.73307E+00 -2.86983E-03  3.59000E-05 -1.60580E-05  3.37316E-06  1.50000E+01