 TITLE="3D TRIANGULAR SURFACE DATA"
VARIABLES="X","Y","Z","U","V","W","P", "Fex", "Fey", "Fez","Finx","Finy","Finz","WSSx","WSSy","WSSz","AMForce"
 ZONE T="unstruc"N=        1757 E=        3355 F=FEPOINT  ET=TRIANGLE
  2.04336E+01  2.03729E+01  2.00905E+01 -4.07873E-01  1.69480E-01 -1.54451E-02 -3.02712E-01  3.24906E-05 -3.17859E-04  5.59117E-05 -7.77328E-04  6.95606E-01 -9.95006E-06  5.39651E-05 -2.52712E-06  6.40280E-06  1.50000E+01
  2.04562E+01  2.03715E+01  2.00908E+01 -4.03457E-01  1.80171E-01 -1.78519E-02 -2.71870E-01  1.51548E-05 -1.28958E-04  2.32441E-05 -2.50115E-03  3.47304E-01 -4.82781E-04  2.42456E-05 -1.12691E-06  3.30740E-06  1.50000E+01
  2.04518E+01  2.03691E+01  2.00709E+01 -4.03541E-01  1.81370E-01 -1.40091E-02 -2.35638E-01  2.11762E-05 -2.06688E-04  2.85910E-05 -4.55752E-04  5.15276E-01 -2.28238E-03  3.53401E-05 -1.86237E-06  4.05733E-06  1.50000E+01
  2.04297E+01  2.03784E+01  2.01195E+01 -4.09175E-01  1.62051E-01 -1.97039E-02 -3.22008E-01  3.01026E-05 -3.02909E-04  6.93941E-05 -9.56735E-04  5.62324E-01 -1.30300E-03  5.11405E-05 -1.67636E-06  8.65262E-06  1.50000E+01
  2.04519E+01  2.03752E+01  2.01105E+01 -4.04455E-01  1.73334E-01 -2.04802E-02 -3.16055E-01  2.31921E-05 -2.23664E-04  4.86760E-05 -9.08599E-04  4.89979E-01  2.12852E-03  3.92560E-05 -1.39616E-06  6.84581E-06  1.50000E+01
  2.04720E+01  2.03722E+01  2.01020E+01 -3.99777E-01  1.86867E-01 -2.17331E-02 -2.50719E-01  1.86248E-05 -1.65965E-04  3.38525E-05 -1.84243E-03  4.54920E-01 -1.01202E-03  3.08413E-05 -1.30574E-06  5.09030E-06  1.50000E+01
  2.04720E+01  2.03688E+01  2.00798E+01 -3.99176E-01  1.92058E-01 -1.71312E-02 -2.67096E-01  1.79331E-05 -1.69768E-04  2.68541E-05 -1.41058E-03  4.71480E-01  8.06735E-04  3.01921E-05 -1.51288E-06  4.40552E-06  1.50000E+01
  2.04495E+01  2.03667E+01  2.00459E+01 -4.03504E-01  1.83757E-01 -8.87940E-03 -3.37071E-01  2.10721E-05 -2.61279E-04  2.36259E-05 -6.87109E-04  5.70150E-01 -5.35049E-04  3.82852E-05 -2.20319E-06  3.20776E-06  1.50000E+01
  2.04295E+01  2.03694E+01  2.00613E+01 -4.08182E-01  1.72597E-01 -1.01479E-02 -2.90263E-01  2.59264E-05 -2.75928E-04  3.30480E-05 -1.03571E-03  6.04117E-01  9.10434E-04  4.36728E-05 -2.31686E-06  3.97835E-06  1.50000E+01
  2.04278E+01  2.03673E+01  2.00345E+01 -4.08130E-01  1.74748E-01 -5.54480E-03 -3.44076E-01  2.19967E-05 -2.97314E-04  2.04839E-05 -8.22692E-04  5.74648E-01  2.66932E-04  4.07026E-05 -2.35881E-06  2.45536E-06  1.50000E+01
  2.04497E+01  2.03803E+01  2.01348E+01 -4.05314E-01  1.65917E-01 -2.45597E-02 -3.25282E-01  2.60708E-05 -2.64545E-04  6.93157E-05 -9.38368E-04  5.04891E-01  5.31179E-04  4.50918E-05 -9.04147E-07  9.94620E-06  1.50000E+01
  2.04707E+01  2.03767E+01  2.01248E+01 -4.00282E-01  1.79611E-01 -2.57621E-02 -3.15427E-01  2.17808E-05 -2.27227E-04  5.51414E-05 -5.38677E-04  5.03774E-01  3.48296E-04  3.88272E-05 -1.13156E-06  7.85716E-06  1.50000E+01
  2.03858E+01  2.03760E+01  2.00900E+01 -4.16592E-01  1.57018E-01 -1.08448E-02 -3.14307E-01  2.83683E-05 -3.24173E-04  5.53320E-05 -8.55135E-04  5.57476E-01 -1.03520E-03  5.05111E-05 -2.66788E-06  4.38756E-06  1.50000E+01
  2.03854E+01  2.03724E+01  2.00630E+01 -4.16391E-01  1.60967E-01 -7.60497E-03 -3.13416E-01  2.49602E-05 -3.09582E-04  3.72217E-05 -1.01474E-03  5.60883E-01 -5.05818E-04  4.53684E-05 -2.66443E-06  2.47149E-06  1.50000E+01
  2.03637E+01  2.03755E+01  2.00763E+01 -4.19806E-01  1.56478E-01 -7.39369E-03 -3.02514E-01  2.55922E-05 -3.19983E-04  4.61020E-05 -7.13547E-04  5.38539E-01 -1.37649E-03  4.80906E-05 -2.94601E-06  2.64757E-06  1.50000E+01
  2.04083E+01  2.03769E+01  2.01041E+01 -4.12994E-01  1.59030E-01 -1.49202E-02 -3.16100E-01  3.03879E-05 -3.33859E-04  6.57449E-05 -1.29838E-03  5.96712E-01 -6.28791E-04  5.32994E-05 -2.39761E-06  6.34949E-06  1.50000E+01
  2.03857E+01  2.03808E+01  2.01166E+01 -4.16940E-01  1.51348E-01 -1.36308E-02 -3.00621E-01  3.05472E-05 -3.20326E-04  7.09457E-05 -6.55651E-04  5.27154E-01 -1.91601E-03  5.31786E-05 -2.38976E-06  6.54109E-06  1.50000E+01
  2.04073E+01  2.03823E+01  2.01309E+01 -4.13551E-01  1.52892E-01 -1.82851E-02 -3.15280E-01  2.79818E-05 -3.13730E-04  7.74076E-05 -6.70135E-04  5.22174E-01 -1.53727E-03  5.02419E-05 -1.78561E-06  7.65997E-06  1.50000E+01
  2.04081E+01  2.03726E+01  2.00764E+01 -4.12603E-01  1.63627E-01 -1.10452E-02 -3.09254E-01  2.79023E-05 -3.14852E-04  4.60402E-05 -1.18549E-03  6.14824E-01 -4.46440E-04  4.85789E-05 -2.58392E-06  3.93597E-06  1.50000E+01
  2.04069E+01  2.03696E+01  2.00490E+01 -4.12469E-01  1.66639E-01 -6.90577E-03 -2.84450E-01  2.47429E-05 -2.95808E-04  2.81680E-05 -9.67072E-04  5.73717E-01 -1.00998E-04  4.34900E-05 -2.47469E-06  2.65462E-06  1.50000E+01
  2.04911E+01  2.03691E+01  2.00909E+01 -3.94444E-01  2.03126E-01 -2.15435E-02 -2.37976E-01  1.88956E-05 -1.87394E-04  3.41551E-05 -1.24606E-03  5.46930E-01 -1.47419E-04  3.30886E-05 -1.55302E-06  5.72361E-06  1.50000E+01
  2.04908E+01  2.03659E+01  2.00672E+01 -3.93821E-01  2.08106E-01 -1.61384E-02 -3.16949E-01  1.77672E-05 -2.18172E-04  2.93066E-05 -9.98894E-04  5.81620E-01  3.49125E-05  3.40586E-05 -1.92734E-06  4.84953E-06  1.50000E+01
  2.04909E+01  2.03731E+01  2.01143E+01 -3.95051E-01  1.96338E-01 -2.66492E-02 -2.88530E-01  2.00035E-05 -1.99648E-04  4.51365E-05 -1.43371E-03  5.42668E-01 -3.88235E-04  3.54772E-05 -1.30311E-06  6.93270E-06  1.50000E+01
  2.04705E+01  2.03663E+01  2.00564E+01 -3.98652E-01  1.95103E-01 -1.23435E-02 -3.30202E-01  1.86026E-05 -2.30854E-04  2.58755E-05 -1.80174E-04  5.56808E-01 -4.59796E-04  3.48384E-05 -2.01049E-06  4.01504E-06  1.50000E+01
  2.04903E+01  2.03637E+01  2.00428E+01 -3.93288E-01  2.11375E-01 -1.05108E-02 -3.16523E-01  1.81704E-05 -2.43650E-04  2.14087E-05 -4.12942E-04  6.23158E-01 -3.34663E-04  3.61408E-05 -2.32336E-06  3.84201E-06  1.50000E+01
  2.04060E+01  2.03680E+01  2.00223E+01 -4.12354E-01  1.68419E-01 -2.85016E-03 -3.37873E-01  2.27709E-05 -3.04972E-04  1.35927E-05 -8.37357E-04  5.57560E-01  8.61077E-05  4.17430E-05 -2.49696E-06  1.32902E-06  1.50000E+01
  2.04484E+01  2.03653E+01  2.00201E+01 -4.03434E-01  1.85398E-01 -3.76200E-03 -3.39319E-01  2.08562E-05 -2.83301E-04  1.15818E-05 -6.21723E-04  5.85228E-01 -1.07495E-04  3.91964E-05 -2.41778E-06  1.59266E-06  1.50000E+01
  2.04270E+01  2.03663E+01  2.00082E+01 -4.08073E-01  1.75844E-01 -1.01027E-03 -3.43526E-01  2.15917E-05 -3.00621E-04  5.32537E-06 -6.70742E-04  5.67330E-01  2.00174E-04  4.03538E-05 -2.43791E-06  6.72998E-07  1.50000E+01
  2.03855E+01  2.03866E+01  2.01424E+01 -4.17429E-01  1.43423E-01 -1.56904E-02 -2.90532E-01  2.66377E-05 -3.10335E-04  8.16088E-05 -1.86106E-05  4.85436E-01 -3.42217E-03  4.93183E-05 -2.01810E-06  6.36083E-06  1.50000E+01
  2.04067E+01  2.03885E+01  2.01563E+01 -4.14188E-01  1.45334E-01 -2.10054E-02 -2.98810E-01  2.43331E-05 -3.01337E-04  8.63306E-05 -2.67478E-04  4.78012E-01 -2.67739E-03  4.66434E-05 -1.44694E-06  7.38534E-06  1.50000E+01
  2.08111E+01  2.04109E+01  1.96958E+01 -2.71410E-01  4.67198E-01  1.62189E-01 -5.42983E-01  3.65620E-05 -3.08986E-04 -1.81379E-04  2.23962E-03  1.47710E+00  3.05409E-03  3.55196E-05  1.01012E-05 -1.95038E-05  1.50000E+01
  2.07915E+01  2.04045E+01  1.97091E+01 -2.76970E-01  4.50664E-01  1.51842E-01 -5.83688E-01  2.78633E-05 -3.19484E-04 -1.76660E-04  2.05268E-03  1.42308E+00  2.64483E-03  3.56315E-05  8.82615E-06 -2.00335E-05  1.50000E+01
  2.08118E+01  2.03986E+01  1.97210E+01 -2.70048E-01  4.86479E-01  1.52591E-01 -4.92790E-01  3.28953E-05 -2.87769E-04 -1.57811E-04  1.96233E-03  1.53598E+00  2.51420E-03  3.58043E-05  8.50955E-06 -1.86747E-05  1.50000E+01
  2.07920E+01  2.03929E+01  1.97345E+01 -2.76307E-01  4.69194E-01  1.41608E-01 -4.75281E-01  2.51916E-05 -2.92677E-04 -1.50375E-04  1.75399E-03  1.47996E+00  2.15104E-03  3.59238E-05  7.23420E-06 -1.90555E-05  1.50000E+01
  2.08123E+01  2.03872E+01  1.97464E+01 -2.69307E-01  5.03276E-01  1.41467E-01 -4.71037E-01  2.99945E-05 -2.61824E-04 -1.33572E-04  1.67141E-03  1.58712E+00  1.99724E-03  3.59020E-05  7.12125E-06 -1.81477E-05  1.50000E+01
  2.08696E+01  2.04350E+01  1.96576E+01 -2.62383E-01  5.09247E-01  1.88922E-01 -4.43522E-01  5.99680E-05 -2.39964E-04 -1.73121E-04  2.36954E-03  1.61414E+00  3.92750E-03  3.75478E-05  1.44754E-05 -1.80341E-05  1.50000E+01
  2.08502E+01  2.04261E+01  1.96700E+01 -2.64095E-01  4.96777E-01  1.80933E-01 -5.15336E-01  5.35110E-05 -2.73404E-04 -1.82649E-04  2.38178E-03  1.57362E+00  3.72870E-03  3.61396E-05  1.28261E-05 -1.83293E-05  1.50000E+01
  2.08705E+01  2.04206E+01  1.96821E+01 -2.58080E-01  5.31501E-01  1.83127E-01 -4.10736E-01  5.47535E-05 -2.38506E-04 -1.61228E-04  2.15820E-03  1.68325E+00  3.33376E-03  3.72903E-05  1.26754E-05 -1.75487E-05  1.50000E+01
  2.04905E+01  2.03781E+01  2.01380E+01 -3.95579E-01  1.88063E-01 -3.14404E-02 -3.28888E-01  2.17217E-05 -2.37297E-04  6.40323E-05 -1.00712E-03  5.44754E-01  1.49261E-04  4.02184E-05 -7.48494E-07  9.87827E-06  1.50000E+01
  2.08713E+01  2.04071E+01  1.97069E+01 -2.54819E-01  5.51039E-01  1.74861E-01 -3.93178E-01  4.92810E-05 -2.05704E-04 -1.32088E-04  1.92200E-03  1.74372E+00  2.72319E-03  3.79806E-05  1.12178E-05 -1.73373E-05  1.50000E+01
  2.08909E+01  2.04152E+01  1.96943E+01 -2.52104E-01  5.64172E-01  1.85364E-01 -3.26228E-01  5.49422E-05 -1.76019E-04 -1.24207E-04  1.96058E-03  1.78663E+00  3.00203E-03  4.13885E-05  1.27130E-05 -1.68149E-05  1.50000E+01
  2.05105E+01  2.03614E+01  2.00296E+01 -3.87473E-01  2.29572E-01 -8.17556E-03 -2.94399E-01  1.82764E-05 -2.42039E-04  1.51586E-05 -4.57512E-04  6.86285E-01 -3.09882E-04  3.72675E-05 -2.67857E-06  3.14423E-06  1.50000E+01
  2.04899E+01  2.03625E+01  2.00178E+01 -3.93058E-01  2.13210E-01 -4.55161E-03 -3.23202E-01  1.89959E-05 -2.56546E-04  9.51655E-06 -3.70675E-04  6.46016E-01 -2.80621E-04  3.76668E-05 -2.62721E-06  1.73958E-06  1.50000E+01
  2.04283E+01  2.03842E+01  2.01453E+01 -4.09971E-01  1.55082E-01 -2.32957E-02 -3.28586E-01  2.67952E-05 -2.91534E-04  8.01807E-05 -8.72960E-04  5.00169E-01 -1.11267E-03  4.75644E-05 -1.02717E-06  9.51354E-06  1.50000E+01
  2.04277E+01  2.03908E+01  2.01701E+01 -4.10694E-01  1.47332E-01 -2.65804E-02 -2.79573E-01  2.39647E-05 -2.82993E-04  8.82109E-05 -6.08063E-04  4.68737E-01 -1.84209E-03  4.50699E-05 -7.01726E-07  9.18711E-06  1.50000E+01
  2.04489E+01  2.03863E+01  2.01593E+01 -4.06090E-01  1.58203E-01 -2.86031E-02 -2.95165E-01  2.42663E-05 -2.67695E-04  8.03059E-05 -1.02839E-03  4.86855E-01 -1.67106E-04  4.38223E-05 -4.59166E-07  1.02205E-05  1.50000E+01
  2.04056E+01  2.03676E+01  1.99959E+01 -4.12300E-01  1.69010E-01  1.13152E-03 -3.45105E-01  2.18934E-05 -3.08653E-04 -1.94509E-06 -7.34702E-04  5.47418E-01  1.97845E-04  4.10162E-05 -2.49191E-06 -2.51030E-07  1.50000E+01
  2.04479E+01  2.03650E+01  1.99942E+01 -4.03466E-01  1.85761E-01  1.30537E-03 -3.37588E-01  2.08014E-05 -2.88705E-04 -2.81686E-06 -5.35109E-04  5.85761E-01  9.67965E-05  3.93371E-05 -2.46006E-06 -3.04798E-07  1.50000E+01
  2.04266E+01  2.03665E+01  1.99822E+01 -4.08141E-01  1.75654E-01  3.45291E-03 -3.37375E-01  2.13006E-05 -2.97785E-04 -9.96068E-06 -6.34885E-04  5.59300E-01  2.33782E-04  3.99215E-05 -2.39512E-06 -1.15500E-06  1.50000E+01
  2.08329E+01  2.03715E+01  1.97845E+01 -2.62291E-01  5.48509E-01  1.27477E-01 -2.76779E-01  3.14538E-05 -1.97847E-04 -9.09566E-05  1.26141E-03  1.72747E+00  1.30202E-03  3.55191E-05  5.11596E-06 -1.52111E-05  1.50000E+01
  2.08528E+01  2.03767E+01  1.97709E+01 -2.56164E-01  5.66070E-01  1.39653E-01 -3.06027E-01  3.68632E-05 -1.90807E-04 -9.56130E-05  1.36022E-03  1.78564E+00  1.44530E-03  3.67622E-05  6.50048E-06 -1.56377E-05  1.50000E+01
  2.08325E+01  2.03818E+01  1.97586E+01 -2.62620E-01  5.35554E-01  1.40782E-01 -3.78021E-01  3.37500E-05 -2.26594E-04 -1.14805E-04  1.52985E-03  1.68874E+00  1.75469E-03  3.61294E-05  6.87632E-06 -1.70280E-05  1.50000E+01
  2.05110E+01  2.03695E+01  2.01029E+01 -3.89136E-01  2.15844E-01 -2.67142E-02 -2.55484E-01  1.85785E-05 -2.02607E-04  4.17703E-05 -1.21359E-03  6.17226E-01 -3.51807E-04  3.49155E-05 -1.49754E-06  7.13205E-06  1.50000E+01
  2.01138E+01  2.03205E+01  2.01913E+01 -9.71073E-02 -8.77212E-01  2.89151E-03 -7.07965E-01  3.10521E-04 -2.35815E-04 -1.67554E-04  1.81691E-02 -2.77640E+00 -8.73030E-03  4.29763E-05  4.04014E-05  2.44320E-06  1.50000E+01
  2.01022E+01  2.03013E+01  2.02019E+01 -6.69026E-02 -9.06499E-01 -7.62971E-05 -8.40049E-01  3.80150E-04 -2.68699E-04 -2.28509E-04  9.95615E-03 -2.85495E+00 -3.79205E-03  4.73191E-05  4.74940E-05  2.96005E-06  1.50000E+01
  2.01207E+01  2.03112E+01  2.02148E+01 -7.92777E-02 -8.86079E-01  1.02772E-03 -1.25550E+00  3.23887E-04 -2.13953E-04 -1.88907E-04  1.23297E-02 -2.80161E+00 -5.59768E-03  4.68308E-05  4.70516E-05  2.92944E-06  1.50000E+01
  2.08923E+01  2.03893E+01  1.97445E+01 -2.46362E-01  5.97947E-01  1.64764E-01 -2.23370E-01  4.46546E-05 -1.10856E-04 -7.18061E-05  1.48088E-03  1.89102E+00  1.85315E-03  3.98548E-05  9.16874E-06 -1.53843E-05  1.50000E+01
  2.09119E+01  2.03967E+01  1.97316E+01 -2.42738E-01  6.11829E-01  1.77585E-01 -4.95890E-02  2.29714E-05 -3.57120E-05 -2.83755E-05  1.04949E-02  1.01111E+00  1.65444E-02  2.06214E-05  5.20164E-06 -7.71674E-06  1.50000E+01
  2.08916E+01  2.04018E+01  1.97192E+01 -2.48794E-01  5.82292E-01  1.76182E-01 -2.13912E-01  4.82529E-05 -1.32827E-04 -9.10042E-05  1.72234E-03  1.84278E+00  2.40790E-03  4.00847E-05  1.09604E-05 -1.63759E-05  1.50000E+01
  2.08320E+01  2.03930E+01  1.97330E+01 -2.63441E-01  5.20377E-01  1.52803E-01 -4.18646E-01  3.65076E-05 -2.51934E-04 -1.37432E-04  1.81077E-03  1.64278E+00  2.26919E-03  3.60100E-05  8.19618E-06 -1.74202E-05  1.50000E+01
  2.08523E+01  2.03877E+01  1.97452E+01 -2.57070E-01  5.52374E-01  1.52592E-01 -4.05067E-01  3.91648E-05 -2.13830E-04 -1.16411E-04  1.62408E-03  1.74416E+00  1.94856E-03  3.64245E-05  8.06519E-06 -1.66188E-05  1.50000E+01
  2.04053E+01  2.03683E+01  1.99700E+01 -4.12367E-01  1.68395E-01  5.00510E-03 -3.31610E-01  2.22557E-05 -2.88909E-04 -1.62394E-05 -7.00211E-04  5.38037E-01  2.28417E-04  4.02795E-05 -2.37633E-06 -1.61776E-06  1.50000E+01
  2.03848E+01  2.03700E+01  2.00362E+01 -4.16249E-01  1.63517E-01 -4.16746E-03 -2.67302E-01  2.41413E-05 -2.96480E-04  2.10142E-05 -9.99296E-04  5.51178E-01 -1.73254E-04  4.32457E-05 -2.63230E-06  1.59709E-06  1.50000E+01
  2.03844E+01  2.03689E+01  2.00097E+01 -4.16125E-01  1.64821E-01 -7.03531E-04 -3.38746E-01  2.26553E-05 -3.05486E-04  5.99091E-06 -8.78717E-04  5.42320E-01  5.64830E-05  4.21071E-05 -2.62344E-06  4.52792E-07  1.50000E+01
  2.08493E+01  2.04406E+01  1.96456E+01 -2.68358E-01  4.72841E-01  1.85959E-01 -5.12365E-01  6.08987E-05 -2.86535E-04 -2.02839E-04  2.59598E-03  1.49933E+00  4.35386E-03  3.71237E-05  1.46041E-05 -1.87740E-05  1.50000E+01
  2.07925E+01  2.03821E+01  1.97601E+01 -2.76118E-01  4.85319E-01  1.30092E-01 -4.07369E-01  2.48495E-05 -2.50497E-04 -1.21403E-04  1.46326E-03  1.52844E+00  1.69497E-03  3.64956E-05  6.10528E-06 -1.90063E-05  1.50000E+01
  2.08127E+01  2.03767E+01  1.97722E+01 -2.69053E-01  5.17756E-01  1.29060E-01 -2.87858E-01  2.89753E-05 -2.15422E-04 -1.02774E-04  1.39032E-03  1.63035E+00  1.52528E-03  3.54950E-05  5.48366E-06 -1.67102E-05  1.50000E+01
  2.03634E+01  2.03725E+01  2.00498E+01 -4.19669E-01  1.60424E-01 -4.80242E-03 -3.09131E-01  2.36897E-05 -3.09712E-04  2.95154E-05 -9.17484E-04  5.43648E-01 -6.68752E-04  4.48795E-05 -2.88107E-06  1.48196E-06  1.50000E+01
  2.03418E+01  2.03729E+01  2.00367E+01 -4.22517E-01  1.61191E-01 -2.54766E-03 -3.01938E-01  2.21804E-05 -3.10471E-04  2.18699E-05 -7.04090E-04  5.40187E-01 -8.52739E-04  4.45253E-05 -3.11876E-06  8.56138E-07  1.50000E+01
  2.03420E+01  2.03753E+01  2.00630E+01 -4.22651E-01  1.56877E-01 -4.47524E-03 -2.95544E-01  2.39814E-05 -3.14866E-04  3.76142E-05 -4.92465E-04  5.32942E-01 -1.74672E-03  4.70326E-05 -3.18964E-06  1.73464E-06  1.50000E+01
  2.05110E+01  2.03659E+01  2.00788E+01 -3.88510E-01  2.22195E-01 -2.07797E-02 -3.15594E-01  1.70803E-05 -2.21803E-04  3.52760E-05 -1.01787E-03  6.36819E-01 -3.24604E-04  3.46868E-05 -1.88531E-06  6.06774E-06  1.50000E+01
  2.05108E+01  2.03631E+01  2.00544E+01 -3.87909E-01  2.26778E-01 -1.45846E-02 -3.07097E-01  1.73608E-05 -2.34536E-04  2.65944E-05 -7.30100E-04  6.63944E-01 -2.50933E-04  3.58099E-05 -2.28229E-06  5.18708E-06  1.50000E+01
  2.05309E+01  2.03593E+01  2.00165E+01 -3.81272E-01  2.48985E-01 -5.19780E-03 -2.66094E-01  1.73245E-05 -2.33341E-04  8.34711E-06 -5.01860E-04  7.49288E-01 -2.27405E-04  3.73098E-05 -2.98425E-06  2.04131E-06  1.50000E+01
  2.05103E+01  2.03607E+01  2.00044E+01 -3.87318E-01  2.30581E-01 -1.56215E-03 -2.91330E-01  1.87805E-05 -2.47246E-04  2.27003E-06 -4.47698E-04  6.98369E-01 -2.36165E-04  3.80005E-05 -2.87738E-06  4.36346E-07  1.50000E+01
  2.08517E+01  2.03996E+01  1.97198E+01 -2.58601E-01  5.36372E-01  1.63971E-01 -4.03780E-01  4.31666E-05 -2.31277E-04 -1.36831E-04  1.87551E-03  1.69549E+00  2.49426E-03  3.62214E-05  9.62530E-06 -1.73175E-05  1.50000E+01
  2.08510E+01  2.04125E+01  1.96947E+01 -2.60893E-01  5.17899E-01  1.73513E-01 -4.28933E-01  4.78099E-05 -2.52438E-04 -1.59019E-04  2.13825E-03  1.63905E+00  3.10341E-03  3.65164E-05  1.13057E-05 -1.80366E-05  1.50000E+01
  2.07717E+01  2.03988E+01  1.97227E+01 -2.83677E-01  4.33428E-01  1.41141E-01 -5.24922E-01  2.04170E-05 -3.17443E-04 -1.66388E-04  1.74272E-03  1.36723E+00  2.22545E-03  3.59596E-05  7.54980E-06 -2.04182E-05  1.50000E+01
  2.03640E+01  2.03849E+01  2.01286E+01 -4.20453E-01  1.41353E-01 -1.07037E-02 -2.81153E-01  2.81876E-05 -3.12476E-04  7.45132E-05  2.01269E-04  4.85489E-01 -4.18510E-03  5.09431E-05 -2.51419E-06  5.23276E-06  1.50000E+01
  2.03426E+01  2.03892E+01  2.01406E+01 -4.24079E-01  1.22517E-01 -4.67589E-03 -2.28814E-01  2.70078E-05 -3.09718E-04  7.76000E-05  8.68960E-04  4.30431E-01 -7.31803E-03  4.89311E-05 -2.42763E-06  4.04409E-06  1.50000E+01
  2.03640E+01  2.03911E+01  2.01540E+01 -4.21241E-01  1.28094E-01 -1.05296E-02 -2.29341E-01  2.61139E-05 -3.05669E-04  8.41895E-05  7.70707E-04  4.41610E-01 -6.52107E-03  4.84612E-05 -2.10560E-06  5.19673E-06  1.50000E+01
  2.08720E+01  2.03944E+01  1.97321E+01 -2.52455E-01  5.68019E-01  1.64417E-01 -3.07443E-01  4.45095E-05 -1.84416E-04 -1.10369E-04  1.67156E-03  1.79585E+00  2.14310E-03  3.77399E-05  9.52505E-06 -1.66370E-05  1.50000E+01
  2.07908E+01  2.04168E+01  1.96841E+01 -2.78238E-01  4.29571E-01  1.60566E-01 -5.89343E-01  3.14813E-05 -3.34076E-04 -1.97124E-04  2.33467E-03  1.35823E+00  3.15987E-03  3.53607E-05  1.01999E-05 -2.04833E-05  1.50000E+01
  2.07711E+01  2.04106E+01  1.96975E+01 -2.84258E-01  4.13102E-01  1.50491E-01 -5.81876E-01  2.21792E-05 -3.40924E-04 -1.90510E-04  2.03479E-03  1.30446E+00  2.68823E-03  3.55162E-05  8.95578E-06 -2.10912E-05  1.50000E+01
  2.04486E+01  2.03931E+01  2.01837E+01 -4.06812E-01  1.49697E-01 -3.24744E-02 -2.99020E-01  2.24361E-05 -2.80653E-04  9.37680E-05 -9.33337E-04  4.65738E-01 -9.25342E-04  4.36787E-05 -1.75770E-07  1.02234E-05  1.50000E+01
  2.04695E+01  2.03885E+01  2.01728E+01 -4.01746E-01  1.62544E-01 -3.45069E-02 -3.30034E-01  2.20143E-05 -2.67257E-04  8.64052E-05 -1.14638E-03  4.92769E-01  1.62151E-04  4.22303E-05  4.68223E-08  1.12482E-05  1.50000E+01
  2.04275E+01  2.03980E+01  2.01945E+01 -4.11518E-01  1.37858E-01 -2.94024E-02 -3.26012E-01  2.21283E-05 -3.06485E-04  1.06575E-04 -4.12431E-04  4.43179E-01 -3.41982E-03  4.55480E-05 -2.00260E-08  1.07396E-05  1.50000E+01
  2.04475E+01  2.03658E+01  1.99685E+01 -4.03690E-01  1.84614E-01  6.26859E-03 -3.20165E-01  2.04337E-05 -2.87204E-04 -1.74328E-05 -6.71063E-04  5.79595E-01  1.36712E-04  3.88707E-05 -2.30351E-06 -2.28630E-06  1.50000E+01
  2.08307E+01  2.04181E+01  1.96827E+01 -2.67100E-01  4.82679E-01  1.71962E-01 -5.12827E-01  4.52456E-05 -2.91105E-04 -1.82281E-04  2.35968E-03  1.52787E+00  3.44091E-03  3.55838E-05  1.14261E-05 -1.88905E-05  1.50000E+01
  2.08299E+01  2.04318E+01  1.96581E+01 -2.70230E-01  4.59814E-01  1.78573E-01 -5.60838E-01  5.13123E-05 -3.05757E-04 -2.03146E-04  2.61798E-03  1.45690E+00  4.06940E-03  3.56098E-05  1.30342E-05 -1.93626E-05  1.50000E+01
  2.08104E+01  2.04239E+01  1.96709E+01 -2.73529E-01  4.45276E-01  1.70022E-01 -5.74921E-01  4.12947E-05 -3.22756E-04 -2.01470E-04  2.54593E-03  1.40967E+00  3.65913E-03  3.51932E-05  1.14720E-05 -1.97270E-05  1.50000E+01
  2.07514E+01  2.04051E+01  1.97112E+01 -2.91429E-01  3.96239E-01  1.40044E-01 -5.38688E-01  1.49823E-05 -3.36256E-04 -1.79280E-04  1.61935E-03  1.24997E+00  2.25085E-03  3.60326E-05  7.89094E-06 -2.17961E-05  1.50000E+01
  2.05313E+01  2.03702E+01  2.01155E+01 -3.83255E-01  2.29936E-01 -3.25646E-02 -2.39386E-01  1.74784E-05 -2.13955E-04  4.93862E-05 -1.15796E-03  6.76537E-01 -4.20527E-04  3.60065E-05 -1.37117E-06  8.49146E-06  1.50000E+01
  2.05110E+01  2.03741E+01  2.01269E+01 -3.89706E-01  2.07822E-01 -3.23563E-02 -2.78590E-01  1.92169E-05 -2.15335E-04  5.36181E-05 -1.27780E-03  6.04087E-01 -3.18576E-04  3.69066E-05 -1.17219E-06  8.24480E-06  1.50000E+01
  2.03639E+01  2.03797E+01  2.01027E+01 -4.20028E-01  1.50398E-01 -9.49120E-03 -2.88756E-01  3.00762E-05 -3.18419E-04  6.21906E-05 -3.31684E-04  5.19144E-01 -2.53371E-03  5.28482E-05 -2.87256E-06  4.75257E-06  1.50000E+01
  2.03422E+01  2.03789E+01  2.00891E+01 -4.22850E-01  1.49747E-01 -5.81047E-03 -2.82599E-01  2.78510E-05 -3.15470E-04  5.33028E-05 -6.01842E-05  5.14170E-01 -3.08213E-03  5.11220E-05 -3.19741E-06  3.21401E-06  1.50000E+01
  2.01097E+01  2.02912E+01  2.02248E+01 -5.43066E-02 -9.10341E-01  0.00000E+00 -1.00695E+00  1.74169E-04 -1.08243E-04 -1.03375E-04 -1.70281E+00  1.58059E+01 -2.00579E+01  2.58103E-05  2.57769E-05  2.57943E-06  1.50000E+01
  2.09102E+01  2.04241E+01  1.96820E+01 -2.50454E-01  5.75573E-01  1.95358E-01 -1.83108E-01  3.19099E-05 -1.02671E-04 -7.49857E-05  8.71232E-03  9.54802E-01  1.63703E-02  2.15193E-05  7.16321E-06 -8.52622E-06  1.50000E+01
  2.08899E+01  2.04295E+01  1.96697E+01 -2.56436E-01  5.43436E-01  1.91998E-01 -5.23978E-01  6.43479E-05 -2.32050E-04 -1.67293E-04  2.16982E-03  1.72220E+00  3.60880E-03  4.09340E-05  1.47363E-05 -1.77060E-05  1.50000E+01
  2.07705E+01  2.04231E+01  1.96726E+01 -2.85419E-01  3.90137E-01  1.58340E-01 -6.21754E-01  2.55499E-05 -3.55319E-04 -2.10585E-04  2.30749E-03  1.23352E+00  3.17571E-03  3.53324E-05  1.01908E-05 -2.13112E-05  1.50000E+01
  2.07508E+01  2.04170E+01  1.96861E+01 -2.91911E-01  3.74101E-01  1.48516E-01 -6.04932E-01  1.68228E-05 -3.53461E-04 -2.00035E-04  1.88909E-03  1.18130E+00  2.68871E-03  3.57680E-05  9.04291E-06 -2.20314E-05  1.50000E+01
  2.03841E+01  2.03691E+01  1.99836E+01 -4.16064E-01  1.64935E-01  2.69871E-03 -3.04268E-01  2.24472E-05 -2.97346E-04 -8.81079E-06 -7.58414E-04  5.33471E-01  1.91476E-04  4.13456E-05 -2.57685E-06 -8.34115E-07  1.50000E+01
  2.05108E+01  2.03796E+01  2.01511E+01 -3.90230E-01  1.98274E-01 -3.77386E-02 -3.35699E-01  1.99164E-05 -2.42590E-04  7.15397E-05 -1.17465E-03  5.87002E-01 -8.95155E-06  3.98755E-05 -3.15394E-07  1.14103E-05  1.50000E+01
  2.03854E+01  2.03931E+01  2.01676E+01 -4.18241E-01  1.32305E-01 -1.66419E-02 -2.78919E-01  2.48527E-05 -3.10476E-04  9.31649E-05  5.11450E-04  4.45992E-01 -5.60636E-03  4.81695E-05 -1.61206E-06  6.79984E-06  1.50000E+01
  2.04065E+01  2.03955E+01  2.01811E+01 -4.15034E-01  1.35473E-01 -2.29424E-02 -3.04268E-01  2.35847E-05 -3.06990E-04  9.99915E-05  9.96008E-05  4.45428E-01 -4.56325E-03  4.74397E-05 -7.76139E-07  9.14089E-06  1.50000E+01
  2.01264E+01  2.03384E+01  2.01800E+01 -1.41006E-01 -8.31143E-01  1.21360E-02 -5.08730E-01  2.82892E-04 -2.47308E-04 -1.33708E-04  2.20690E-02 -2.65504E+00 -8.92167E-03  4.32540E-05  3.59162E-05  2.02779E-06  1.50000E+01
  2.01080E+01  2.03285E+01  2.01671E+01 -1.18683E-01 -8.62912E-01  6.27876E-03 -3.82091E-01  2.94808E-04 -2.43482E-04 -1.35589E-04  1.96750E-02 -2.72957E+00 -7.99580E-03  4.38488E-05  3.83262E-05  1.80308E-06  1.50000E+01
  2.08289E+01  2.04462E+01  1.96337E+01 -2.74435E-01  4.34043E-01  1.82863E-01 -6.49373E-01  5.82856E-05 -3.21489E-04 -2.24449E-04  2.83583E-03  1.37686E+00  4.70727E-03  3.59603E-05  1.44410E-05 -1.93408E-05  1.50000E+01
  2.03202E+01  2.03738E+01  2.00239E+01 -4.25016E-01  1.61721E-01 -8.11508E-04 -2.95624E-01  2.15097E-05 -3.07432E-04  1.41029E-05 -2.75744E-04  5.42081E-01 -9.20457E-04  4.51243E-05 -3.42199E-06  4.03898E-07  1.50000E+01
  2.03204E+01  2.03756E+01  2.00499E+01 -4.25186E-01  1.56992E-01 -2.03199E-03 -2.87363E-01  2.36406E-05 -3.08457E-04  2.93046E-05 -9.13564E-05  5.32417E-01 -2.07091E-03  4.73923E-05 -3.47551E-06  1.18629E-06  1.50000E+01
  2.05313E+01  2.03660E+01  2.00910E+01 -3.82687E-01  2.37446E-01 -2.60794E-02 -3.06988E-01  1.63440E-05 -2.25720E-04  4.15183E-05 -1.04242E-03  6.96220E-01 -4.08682E-04  3.55259E-05 -1.82078E-06  7.32775E-06  1.50000E+01
  2.05312E+01  2.03627E+01  2.00664E+01 -3.82097E-01  2.43163E-01 -1.93268E-02 -2.88758E-01  1.67777E-05 -2.31273E-04  3.19556E-05 -8.26715E-04  7.16533E-01 -3.52405E-04  3.61831E-05 -2.28707E-06  6.20143E-06  1.50000E+01
  2.03427E+01  2.03956E+01  2.01657E+01 -4.25475E-01  9.88687E-02 -7.70375E-04 -2.48606E-01  2.83444E-05 -3.17914E-04  8.98574E-05  4.57426E-04  3.59372E-01 -9.84913E-03  4.85634E-05 -1.57269E-06  5.07630E-06  1.50000E+01
  2.03215E+01  2.03999E+01  2.01777E+01 -4.29885E-01  4.59749E-02  1.56493E-02 -2.57559E-01  3.85018E-05 -3.37096E-04  9.35419E-05 -3.63372E-03  2.02014E-01 -1.05676E-02  5.04103E-05  8.03884E-08  6.30412E-06  1.50000E+01
  2.03428E+01  2.04025E+01  2.01906E+01 -4.27378E-01  6.52474E-02  6.54141E-03 -2.66683E-01  3.23893E-05 -3.35226E-04  1.02052E-04 -1.78815E-03  2.58842E-01 -1.14717E-02  4.81661E-05 -1.38738E-07  6.86520E-06  1.50000E+01
  2.07311E+01  2.04116E+01  1.96999E+01 -2.99516E-01  3.57978E-01  1.38322E-01 -5.57838E-01  1.01137E-05 -3.45349E-04 -1.87067E-04  1.38330E-03  1.12937E+00  2.27615E-03  3.59453E-05  7.93970E-06 -2.24197E-05  1.50000E+01
  2.03631E+01  2.03707E+01  2.00234E+01 -4.19542E-01  1.62710E-01 -1.98480E-03 -2.81244E-01  2.29954E-05 -3.00268E-04  1.37459E-05 -9.42364E-04  5.41022E-01 -2.41517E-04  4.32772E-05 -2.84244E-06  7.53911E-07  1.50000E+01
  2.03629E+01  2.03702E+01  1.99971E+01 -4.19419E-01  1.63561E-01  8.88529E-04 -2.67782E-01  2.25360E-05 -2.99791E-04 -1.32808E-06 -8.22569E-04  5.35268E-01  6.73678E-05  4.26567E-05 -2.82659E-06 -1.47024E-07  1.50000E+01
  2.05311E+01  2.03605E+01  2.00416E+01 -3.81588E-01  2.47027E-01 -1.23511E-02 -2.75022E-01  1.74428E-05 -2.31275E-04  2.07801E-05 -6.18175E-04  7.35660E-01 -2.83825E-04  3.71285E-05 -2.70583E-06  4.76966E-06  1.50000E+01
  2.08095E+01  2.04376E+01  1.96463E+01 -2.76568E-01  4.20534E-01  1.75833E-01 -6.25743E-01  4.71182E-05 -3.36974E-04 -2.21781E-04  2.81383E-03  1.33269E+00  4.27497E-03  3.48975E-05  1.27167E-05 -1.97312E-05  1.50000E+01
  2.07901E+01  2.04299E+01  1.96593E+01 -2.80251E-01  4.05757E-01  1.67550E-01 -6.36607E-01  3.62095E-05 -3.48706E-04 -2.17578E-04  2.64343E-03  1.28461E+00  3.74277E-03  3.52812E-05  1.15043E-05 -2.07131E-05  1.50000E+01
  2.03425E+01  2.03836E+01  2.01150E+01 -4.23260E-01  1.38793E-01 -6.08826E-03 -2.55216E-01  2.84111E-05 -3.15052E-04  6.74158E-05  4.93704E-04  4.80610E-01 -4.95410E-03  5.13962E-05 -2.89016E-06  4.12968E-06  1.50000E+01
  2.03209E+01  2.03826E+01  2.01017E+01 -4.25914E-01  1.34988E-01 -1.82808E-03 -2.41097E-01  2.91710E-05 -3.12187E-04  5.88743E-05  7.03644E-04  4.71582E-01 -5.62054E-03  5.19938E-05 -3.18124E-06  3.21549E-06  1.50000E+01
  2.05716E+01  2.03556E+01  1.99902E+01 -3.67776E-01  2.89824E-01  2.75286E-03 -2.24792E-01  1.26135E-05 -2.25741E-04 -4.71503E-06 -4.75575E-04  8.82138E-01 -4.41486E-06  3.42965E-05 -3.13276E-06 -9.65969E-07  1.50000E+01
  2.05511E+01  2.03578E+01  1.99780E+01 -3.74696E-01  2.68190E-01  6.37789E-03 -2.40971E-01  1.51713E-05 -2.30129E-04 -1.09710E-05 -4.72854E-04  8.17964E-01  7.41946E-06  3.61525E-05 -3.04227E-06 -2.50433E-06  1.50000E+01
  2.05513E+01  2.03573E+01  2.00034E+01 -3.74700E-01  2.69162E-01 -1.54863E-03 -2.41511E-01  1.47224E-05 -2.28151E-04  1.58094E-06 -4.96394E-04  8.14940E-01 -1.06266E-04  3.55228E-05 -3.08472E-06  3.82738E-07  1.50000E+01
  2.08085E+01  2.04520E+01  1.96220E+01 -2.80687E-01  3.92801E-01  1.79389E-01 -6.57371E-01  5.44488E-05 -3.44727E-04 -2.38219E-04  3.03187E-03  1.24636E+00  4.89849E-03  3.51872E-05  1.39410E-05 -1.95745E-05  1.50000E+01
  2.05312E+01  2.03814E+01  2.01642E+01 -3.84226E-01  2.09819E-01 -4.46949E-02 -3.34067E-01  1.94270E-05 -2.42543E-04  7.87033E-05 -1.22565E-03  6.28197E-01 -1.54549E-04  4.06080E-05  2.84040E-07  1.38315E-05  1.50000E+01
  2.05313E+01  2.03753E+01  2.01399E+01 -3.83763E-01  2.20692E-01 -3.87625E-02 -2.99012E-01  1.82503E-05 -2.27806E-04  6.26899E-05 -1.19476E-03  6.54841E-01 -3.65107E-04  3.83415E-05 -8.14172E-07  1.03472E-05  1.50000E+01
  2.03206E+01  2.03785E+01  2.00759E+01 -4.25442E-01  1.48455E-01 -2.55379E-03 -2.65745E-01  2.75247E-05 -3.09783E-04  4.45135E-05  2.77600E-04  5.10291E-01 -3.60998E-03  5.11783E-05 -3.50578E-06  2.33958E-06  1.50000E+01
  2.03640E+01  2.04053E+01  2.02036E+01 -4.24502E-01  8.09195E-02 -2.97035E-03 -2.71182E-01  2.89538E-05 -3.32183E-04  1.09985E-04 -6.72796E-04  3.03270E-01 -1.17478E-02  4.76475E-05 -2.49835E-08  8.17833E-06  1.50000E+01
  2.03851E+01  2.04082E+01  2.02167E+01 -4.21273E-01  9.32698E-02 -1.26698E-02 -2.62843E-01  2.37130E-05 -3.29305E-04  1.15384E-04 -1.49629E-04  3.35951E-01 -1.14299E-02  4.45049E-05 -1.13589E-07  7.87836E-06  1.50000E+01
  2.03853E+01  2.04004E+01  2.01923E+01 -4.19525E-01  1.16355E-01 -1.59122E-02 -2.91898E-01  2.44916E-05 -3.24177E-04  1.08582E-04  6.31865E-04  4.00260E-01 -8.45507E-03  4.83375E-05 -5.77162E-07  9.13565E-06  1.50000E+01
  2.00900E+01  2.03183E+01  2.01542E+01 -9.78908E-02 -8.92485E-01  2.09026E-03 -2.88900E-01  3.06334E-04 -2.39943E-04 -1.33465E-04  1.62604E-02 -2.78832E+00 -6.44821E-03  4.47596E-05  4.14826E-05  5.99207E-07  1.50000E+01
  2.00776E+01  2.03002E+01  2.01655E+01 -6.61536E-02 -9.24405E-01 -1.16851E-03 -4.73875E-01  3.98467E-04 -3.02890E-04 -2.05231E-04  1.12224E-02 -2.85558E+00 -4.54965E-03  4.62008E-05  4.65789E-05 -2.39581E-07  1.50000E+01