 TITLE="3D TRIANGULAR SURFACE DATA"
VARIABLES="X","Y","Z","U","V","W","P", "Fex", "Fey", "Fez","Finx","Finy","Finz","WSSx","WSSy","WSSz","AMForce"
 ZONE T="unstruc"N=        1757 E=        3355 F=FEPOINT  ET=TRIANGLE
  2.04629E+01  2.03020E+01  2.00966E+01  1.20998E-01  6.07776E-01 -2.68111E-02 -6.35144E-02  2.45546E-05  1.35284E-05  7.43407E-06  3.98795E-03  2.51865E+00 -2.37003E-03  1.88172E-05 -4.18692E-06  1.02786E-05  1.50000E+01
  2.04836E+01  2.02951E+01  2.00970E+01  1.31616E-01  6.40419E-01 -2.54057E-02  2.63866E-04  1.52666E-05  1.73898E-05  1.03954E-06 -2.30644E-03  1.24726E+00  2.31017E-03  8.47234E-06 -1.99233E-06  4.86571E-06  1.50000E+01
  2.04790E+01  2.02930E+01  2.00760E+01  1.34631E-01  6.36789E-01 -2.13252E-02  4.31014E-02  2.28043E-05  2.98018E-05  9.04262E-08  1.08819E-03  1.82700E+00 -2.75395E-03  1.15672E-05 -3.14456E-06  5.45127E-06  1.50000E+01
  2.04599E+01  2.03101E+01  2.01273E+01  1.10225E-01  5.94847E-01 -3.44076E-02 -8.27236E-02  1.12597E-05 -2.05224E-05  1.58059E-05  1.75576E-03  2.07792E+00 -3.16445E-03  1.74015E-05 -2.88850E-06  1.10938E-05  1.50000E+01
  2.04798E+01  2.03010E+01  2.01177E+01  1.24730E-01  6.29028E-01 -3.04121E-02 -7.63997E-02  1.05513E-05 -1.13931E-05  1.14244E-05  3.88167E-03  1.79361E+00  2.68909E-03  1.37435E-05 -2.60990E-06  9.00336E-06  1.50000E+01
  2.04978E+01  2.02925E+01  2.01091E+01  1.37215E-01  6.59334E-01 -2.82225E-02  3.18639E-03  1.10746E-05 -1.48132E-06  6.42298E-06  1.16066E-03  1.61794E+00 -1.42706E-03  1.08718E-05 -2.45790E-06  6.52204E-06  1.50000E+01
  2.04974E+01  2.02880E+01  2.00854E+01  1.42776E-01  6.63841E-01 -2.25710E-02  7.00846E-03  1.33788E-05  7.88957E-06  3.23176E-06  1.89270E-04  1.64063E+00  7.61107E-04  9.72954E-06 -2.61140E-06  5.10881E-06  1.50000E+01
  2.04764E+01  2.02904E+01  2.00492E+01  1.38337E-01  6.36289E-01 -1.45055E-02  2.03746E-01  2.10219E-05  2.53947E-05  6.59562E-07  2.59831E-03  1.98911E+00 -1.42525E-03  1.15720E-05 -3.50539E-06  3.87972E-06  1.50000E+01
  2.04586E+01  2.02983E+01  2.00654E+01  1.25676E-01  6.06652E-01 -1.89842E-02  6.53200E-02  3.09907E-05  4.67151E-05 -4.90543E-07  3.32019E-03  2.13879E+00 -6.60670E-04  1.44099E-05 -3.82667E-06  6.26749E-06  1.50000E+01
  2.04568E+01  2.02958E+01  2.00369E+01  1.28763E-01  6.06837E-01 -1.12702E-02  1.74396E-01  2.41188E-05  3.36474E-05 -1.25891E-07  2.66865E-03  2.01109E+00 -4.62275E-04  1.21945E-05 -3.67695E-06  3.31903E-06  1.50000E+01
  2.04784E+01  2.03083E+01  2.01437E+01  1.14866E-01  6.18859E-01 -3.68315E-02 -1.10103E-01  7.10970E-06 -2.59730E-05  1.75626E-05  1.92127E-03  1.89966E+00 -1.30423E-03  1.56297E-05 -2.31555E-06  1.06914E-05  1.50000E+01
  2.04970E+01  2.02988E+01  2.01333E+01  1.29537E-01  6.51366E-01 -3.34979E-02 -6.91209E-02  7.05111E-06 -2.03689E-05  1.45625E-05  3.23202E-03  1.84227E+00  1.95093E-04  1.37494E-05 -2.36585E-06  9.59499E-06  1.50000E+01
  2.04195E+01  2.03157E+01  2.00955E+01  9.72171E-02  5.39070E-01 -2.80224E-02 -4.58429E-02  2.82166E-05  3.25326E-05  2.12191E-06  1.94408E-03  1.91395E+00 -1.15077E-03  1.73915E-05 -3.46089E-06  9.11302E-06  1.50000E+01
  2.04187E+01  2.03110E+01  2.00669E+01  1.03043E-01  5.43605E-01 -2.02767E-02  2.58822E-02  3.44370E-05  6.09828E-05 -2.91523E-06  2.37180E-03  1.90157E+00 -6.65504E-04  1.50018E-05 -3.65148E-06  6.13094E-06  1.50000E+01
  2.03992E+01  2.03190E+01  2.00808E+01  8.96695E-02  5.10485E-01 -2.47660E-02 -6.17950E-02  2.74183E-05  3.27457E-05  2.28224E-06  1.97274E-03  1.74638E+00 -9.05031E-04  1.68470E-05 -3.55305E-06  8.05924E-06  1.50000E+01
  2.04402E+01  2.03124E+01  2.01107E+01  1.04368E-01  5.68246E-01 -3.11568E-02 -7.98513E-02  2.13853E-05  6.68556E-06  8.63314E-06  1.71241E-03  2.14236E+00 -1.24193E-03  1.84781E-05 -3.47438E-06  1.04596E-05  1.50000E+01
  2.04199E+01  2.03219E+01  2.01237E+01  8.93564E-02  5.31794E-01 -3.50153E-02 -1.18129E-01  1.37403E-05 -1.94586E-05  1.64456E-05  1.66548E-03  1.83952E+00 -1.26344E-03  1.91716E-05 -2.85382E-06  1.18118E-05  1.50000E+01
  2.04398E+01  2.03198E+01  2.01390E+01  9.49466E-02  5.58673E-01 -3.78282E-02 -1.34757E-01  7.82893E-06 -3.46830E-05  2.26517E-05  2.01500E-03  1.90557E+00 -1.85180E-03  1.85656E-05 -2.22569E-06  1.30396E-05  1.50000E+01
  2.04396E+01  2.03068E+01  2.00813E+01  1.11692E-01  5.73989E-01 -2.36275E-02 -3.44608E-02  2.93289E-05  3.79950E-05  1.09469E-06  2.53390E-03  2.17222E+00 -8.10992E-04  1.63353E-05 -3.78039E-06  8.07381E-06  1.50000E+01
  2.04380E+01  2.03032E+01  2.00522E+01  1.16248E-01  5.75967E-01 -1.57075E-02 -1.20830E-02  2.52099E-05  3.37759E-05  6.89498E-07  2.79902E-03  1.99808E+00 -3.05663E-04  1.34398E-05 -3.63503E-06  4.96969E-06  1.50000E+01
  2.05148E+01  2.02839E+01  2.00975E+01  1.50159E-01  6.87691E-01 -2.52109E-02 -4.43581E-02  6.10279E-06 -1.69549E-05  9.16465E-06  1.34476E-03  1.86118E+00 -1.10670E-03  1.14474E-05 -2.94749E-06  6.39246E-06  1.50000E+01
  2.05141E+01  2.02799E+01  2.00722E+01  1.55561E-01  6.90973E-01 -1.91059E-02  2.04405E-02  9.51974E-06 -5.93337E-06  5.22196E-06  1.44855E-03  1.93920E+00  5.47812E-05  1.07912E-05 -3.19813E-06  5.10176E-06  1.50000E+01
  2.05150E+01  2.02894E+01  2.01225E+01  1.43275E-01  6.82195E-01 -3.08197E-02 -5.13312E-02  4.12653E-06 -2.50017E-05  1.32870E-05  1.82422E-03  1.89720E+00 -1.28428E-03  1.26206E-05 -2.74409E-06  7.77427E-06  1.50000E+01
  2.04955E+01  2.02851E+01  2.00606E+01  1.47245E-01  6.64353E-01 -1.69223E-02  2.04033E-02  1.20019E-05  1.15497E-06  3.96530E-06  1.99509E-03  1.90773E+00 -1.06116E-03  1.05734E-05 -3.17669E-06  4.71355E-06  1.50000E+01
  2.05131E+01  2.02772E+01  2.00461E+01  1.59679E-01  6.92345E-01 -1.28257E-02  1.08587E-01  7.09143E-06 -1.12320E-05  4.01556E-06  2.44349E-03  2.04805E+00 -4.95209E-04  1.01734E-05 -3.36312E-06  3.49686E-06  1.50000E+01
  2.04370E+01  2.03013E+01  2.00237E+01  1.18749E-01  5.76776E-01 -7.65282E-03  6.85607E-02  1.69423E-05  1.23943E-05  1.26070E-06  2.75383E-03  1.92475E+00 -8.73244E-05  1.19448E-05 -3.58867E-06  2.35771E-06  1.50000E+01
  2.04752E+01  2.02888E+01  2.00216E+01  1.40611E-01  6.36374E-01 -6.96283E-03  1.92555E-01  8.74757E-06 -7.75415E-06  2.03646E-06  2.83620E-03  2.02248E+00 -5.13245E-04  1.08694E-05 -3.54858E-06  1.95046E-06  1.50000E+01
  2.04559E+01  2.02947E+01  2.00087E+01  1.30228E-01  6.06796E-01 -3.34740E-03  2.39233E-01  1.44678E-05  7.21207E-06  5.89353E-07  2.89960E-03  1.97303E+00 -6.06580E-05  1.14693E-05 -3.64999E-06  9.27153E-07  1.50000E+01
  2.04201E+01  2.03295E+01  2.01509E+01  7.98400E-02  5.22220E-01 -4.10572E-02 -1.51076E-01  6.52599E-06 -4.21365E-05  2.56211E-05  1.97611E-03  1.73539E+00 -1.69963E-03  1.93652E-05 -1.92063E-06  1.30723E-05  1.50000E+01
  2.04399E+01  2.03281E+01  2.01659E+01  8.41918E-02  5.48119E-01 -4.32461E-02 -1.65616E-01  1.45024E-07 -5.69960E-05  3.24657E-05  2.19773E-03  1.78375E+00 -2.02685E-03  1.85303E-05 -1.41190E-06  1.35087E-05  1.50000E+01
  2.08122E+01  2.02526E+01  1.96706E+01  2.21412E-01  1.10073E+00  6.58200E-02 -4.76701E-01 -8.08367E-05 -2.71608E-04 -1.74919E-04  2.96773E-03  3.46495E+00  1.57192E-04  2.49576E-05 -4.32765E-06 -8.77096E-06  1.50000E+01
  2.07931E+01  2.02514E+01  1.96855E+01  2.19401E-01  1.07087E+00  6.05758E-02 -4.67273E-01 -8.76226E-05 -2.70542E-04 -1.66013E-04  2.61625E-03  3.36784E+00  1.22174E-05  2.41963E-05 -4.69413E-06 -9.08457E-06  1.50000E+01
  2.08102E+01  2.02377E+01  1.96971E+01  2.42342E-01  1.10522E+00  6.22651E-02 -4.41108E-01 -7.72295E-05 -2.58131E-04 -1.50292E-04  2.84527E-03  3.47582E+00  1.00932E-04  2.44063E-05 -5.49248E-06 -7.39253E-06  1.50000E+01
  2.07912E+01  2.02372E+01  1.97122E+01  2.39270E-01  1.07565E+00  5.70716E-02 -4.48896E-01 -8.04429E-05 -2.50095E-04 -1.39043E-04  2.52851E-03  3.38033E+00 -2.07481E-05  2.29737E-05 -5.16843E-06 -8.24820E-06  1.50000E+01
  2.08084E+01  2.02240E+01  1.97241E+01  2.61472E-01  1.10933E+00  5.80916E-02 -4.57898E-01 -7.26497E-05 -2.42889E-04 -1.27192E-04  2.73979E-03  3.48588E+00  5.19672E-05  2.39363E-05 -6.19623E-06 -6.62933E-06  1.50000E+01
  2.08708E+01  2.02614E+01  1.96275E+01  2.21540E-01  1.19489E+00  8.54056E-02 -3.70592E-01 -3.80335E-05 -2.36660E-04 -1.76241E-04  3.80022E-03  3.77098E+00  1.32895E-03  3.17599E-05 -4.91518E-06 -6.07839E-06  1.50000E+01
  2.08511E+01  2.02576E+01  1.96415E+01  2.22741E-01  1.16300E+00  7.83860E-02 -4.59600E-01 -5.96484E-05 -2.67269E-04 -1.89624E-04  3.63890E-03  3.66757E+00  8.76996E-04  2.85611E-05 -4.62823E-06 -6.89806E-06  1.50000E+01
  2.08682E+01  2.02442E+01  1.96530E+01  2.46382E-01  1.19853E+00  8.17953E-02 -3.92545E-01 -3.79309E-05 -2.23141E-04 -1.51735E-04  3.68734E-03  3.78086E+00  1.10733E-03  3.17944E-05 -6.22166E-06 -5.43519E-06  1.50000E+01
  2.05152E+01  2.02961E+01  2.01476E+01  1.34520E-01  6.75158E-01 -3.59326E-02 -1.64767E-02  1.26113E-06 -3.60438E-05  2.02560E-05  2.83587E-03  1.96949E+00 -4.89688E-04  1.43831E-05 -2.23224E-06  1.04296E-05  1.50000E+01
  2.08659E+01  2.02281E+01  1.96791E+01  2.69283E-01  1.20185E+00  7.73814E-02 -4.17292E-01 -3.51171E-05 -2.02326E-04 -1.24457E-04  3.58902E-03  3.78979E+00  9.07289E-04  3.00853E-05 -6.72670E-06 -4.91387E-06  1.50000E+01
  2.08855E+01  2.02313E+01  1.96646E+01  2.69649E-01  1.23342E+00  8.47598E-02 -2.14514E-01 -8.94731E-06 -1.45288E-04 -9.43702E-05  3.70184E-03  3.89240E+00  1.22899E-03  3.31381E-05 -6.99622E-06 -4.23255E-06  1.50000E+01
  2.05311E+01  2.02695E+01  2.00320E+01  1.71775E-01  7.20193E-01 -8.88221E-03  3.03924E-02 -1.65254E-06 -3.33810E-05  4.14617E-06  2.69318E-03  2.15563E+00 -1.98152E-04  9.64111E-06 -3.42265E-06  2.22614E-06  1.50000E+01
  2.05125E+01  2.02757E+01  2.00193E+01  1.62110E-01  6.92988E-01 -5.99366E-03  9.26047E-02  5.19764E-06 -1.55417E-05  1.80977E-06  2.99174E-03  2.10572E+00 -4.43104E-04  9.91130E-06 -3.51094E-06  1.40641E-06  1.50000E+01
  2.04592E+01  2.03181E+01  2.01546E+01  9.96438E-02  5.84220E-01 -4.02622E-02 -1.41680E-01  5.67895E-06 -3.61820E-05  2.42274E-05  1.93334E-03  1.89010E+00 -2.13399E-03  1.75168E-05 -1.69868E-06  1.32001E-05  1.50000E+01
  2.04594E+01  2.03269E+01  2.01807E+01  8.79127E-02  5.73491E-01 -4.50101E-02 -1.84388E-01 -2.95053E-06 -6.04656E-05  3.69385E-05  2.36705E-03  1.81757E+00 -2.05832E-03  1.77620E-05 -6.49969E-07  1.45525E-05  1.50000E+01
  2.04783E+01  2.03165E+01  2.01697E+01  1.03752E-01  6.09026E-01 -4.21450E-02 -1.10746E-01  6.49063E-06 -2.95533E-05  2.31306E-05  2.11692E-03  1.88660E+00 -1.76907E-03  1.66786E-05 -1.24261E-06  1.32846E-05  1.50000E+01
  2.04365E+01  2.03008E+01  1.99956E+01  1.19367E-01  5.76394E-01  4.75918E-04  8.23185E-02  1.34843E-05  2.98885E-06 -1.87066E-07  2.77889E-03  1.88215E+00  2.01097E-04  1.14716E-05 -3.55652E-06 -2.33361E-07  1.50000E+01
  2.04747E+01  2.02885E+01  1.99939E+01  1.41117E-01  6.35879E-01  7.89296E-04  2.19665E-01  5.13466E-06 -1.78053E-05 -6.81679E-07  3.06238E-03  2.01833E+00  1.33361E-05  1.06317E-05 -3.52643E-06 -5.17200E-07  1.50000E+01
  2.04556E+01  2.02951E+01  1.99810E+01  1.29816E-01  6.05693E-01  4.59589E-03  2.30339E-01  1.54889E-05  1.07350E-05 -6.61257E-07  2.93607E-03  1.94385E+00  2.82627E-04  1.13238E-05 -3.58378E-06 -1.32587E-06  1.50000E+01
  2.08241E+01  2.01991E+01  1.97642E+01  2.99949E-01  1.14619E+00  5.36651E-02 -3.71377E-01 -5.44576E-05 -2.07319E-04 -9.04664E-05  2.83699E-03  3.59917E+00  1.18821E-04  2.35504E-05 -7.15008E-06 -4.48889E-06  1.50000E+01
  2.08429E+01  2.01989E+01  1.97487E+01  3.05019E-01  1.17664E+00  5.98159E-02 -4.12021E-01 -5.12549E-05 -2.14908E-04 -9.93261E-05  3.13202E-03  3.70096E+00  3.30998E-04  2.54680E-05 -7.46448E-06 -3.95303E-06  1.50000E+01
  2.08256E+01  2.02112E+01  1.97363E+01  2.83401E-01  1.14303E+00  5.90462E-02 -3.90893E-01 -6.02456E-05 -2.24766E-04 -1.10884E-04  2.94172E-03  3.59246E+00  1.75263E-04  2.43615E-05 -6.77953E-06 -5.24086E-06  1.50000E+01
  2.05329E+01  2.02799E+01  2.01106E+01  1.57182E-01  7.12067E-01 -2.76990E-02 -3.17359E-02  9.72009E-07 -3.29282E-05  1.39365E-05  1.91070E-03  2.04273E+00 -1.07410E-03  1.24610E-05 -3.07291E-06  7.24372E-06  1.50000E+01
  2.01414E+01  2.03986E+01  2.01881E+01 -3.99759E-02  1.76734E-02 -2.75113E-02 -5.72975E-01  3.34584E-05 -2.25718E-04  6.05472E-05 -4.58383E-03  1.14939E-01 -1.13316E-02  4.34774E-05 -5.38553E-07  3.74538E-06  1.50000E+01
  2.01208E+01  2.04012E+01  2.02000E+01 -4.21704E-02 -8.97028E-02 -1.36725E-02 -5.30261E-01  6.26963E-05 -2.10657E-04  4.94894E-05 -1.20890E-02 -2.30507E-01 -4.12688E-03  5.65737E-05  3.48125E-06  4.80246E-06  1.50000E+01
  2.01413E+01  2.04046E+01  2.02129E+01 -4.41710E-02 -6.81744E-02 -1.57900E-02 -4.46579E-01  5.01068E-05 -2.06444E-04  5.75133E-05 -7.78212E-03 -1.68740E-01 -6.37474E-03  4.84901E-05  1.94132E-06  4.47396E-06  1.50000E+01
  2.08811E+01  2.02010E+01  1.97181E+01  3.12417E-01  1.23877E+00  7.37090E-02 -4.01692E-01 -9.18080E-06 -1.33203E-04 -6.86087E-05  3.60079E-03  3.90664E+00  8.63357E-04  3.28961E-05 -9.09522E-06 -2.44277E-06  1.50000E+01
  2.09004E+01  2.02033E+01  1.97032E+01  3.14402E-01  1.26995E+00  8.12239E-02 -8.97130E-02 -2.34267E-06 -6.94921E-05 -3.77246E-05  2.64070E-02  2.06843E+00  9.86334E-03  1.72002E-05 -4.57653E-06 -9.32431E-07  1.50000E+01
  2.08832E+01  2.02155E+01  1.96910E+01  2.92038E-01  1.23624E+00  7.95770E-02 -3.73099E-01 -1.72267E-05 -1.68140E-04 -9.79248E-05  3.66093E-03  3.90009E+00  1.05176E-03  3.24003E-05 -7.88505E-06 -3.47618E-06  1.50000E+01
  2.08274E+01  2.02245E+01  1.97089E+01  2.64984E-01  1.13953E+00  6.39069E-02 -4.40885E-01 -6.33016E-05 -2.37545E-04 -1.31234E-04  3.04656E-03  3.58430E+00  2.45396E-04  2.52550E-05 -6.35505E-06 -5.85899E-06  1.50000E+01
  2.08446E+01  2.02118E+01  1.97210E+01  2.87295E-01  1.17370E+00  6.53750E-02 -4.13665E-01 -5.02156E-05 -2.17340E-04 -1.13371E-04  3.23632E-03  3.69409E+00  4.26755E-04  2.61763E-05 -6.93906E-06 -4.73764E-06  1.50000E+01
  2.04363E+01  2.03019E+01  1.99680E+01  1.18073E-01  5.74601E-01  8.50679E-03  5.04470E-02  1.69947E-05  1.33741E-05 -1.33145E-06  2.69447E-03  1.85050E+00  4.23447E-04  1.17422E-05 -3.45211E-06 -2.71374E-06  1.50000E+01
  2.04179E+01  2.03081E+01  2.00384E+01  1.06709E-01  5.45853E-01 -1.21309E-02 -1.24814E-02  2.51893E-05  3.84251E-05 -5.77924E-07  2.53513E-03  1.85052E+00 -1.79299E-04  1.27438E-05 -3.54358E-06  3.49401E-06  1.50000E+01
  2.04174E+01  2.03068E+01  2.00103E+01  1.08375E-01  5.46461E-01 -3.85168E-03 -3.89420E-02  1.36849E-05  2.59308E-06  7.46677E-07  2.54152E-03  1.80974E+00  9.92765E-05  1.20559E-05 -3.57893E-06  9.53720E-07  1.50000E+01
  2.08536E+01  2.02750E+01  1.96163E+01  1.97461E-01  1.15878E+00  8.12230E-02 -5.21976E-01 -5.90556E-05 -2.82628E-04 -2.17566E-04  3.80976E-03  3.65611E+00  1.08216E-03  2.96663E-05 -3.83771E-06 -7.29097E-06  1.50000E+01
  2.07896E+01  2.02241E+01  1.97395E+01  2.57359E-01  1.08001E+00  5.29772E-02 -4.32323E-01 -7.16219E-05 -2.28125E-04 -1.13375E-04  2.44371E-03  3.38991E+00 -4.51450E-05  2.24013E-05 -5.76027E-06 -7.48813E-06  1.50000E+01
  2.08068E+01  2.02114E+01  1.97517E+01  2.78777E-01  1.11307E+00  5.33625E-02 -3.60016E-01 -6.49951E-05 -2.22171E-04 -1.03385E-04  2.62773E-03  3.49365E+00  1.07041E-05  2.28761E-05 -6.38353E-06 -6.17751E-06  1.50000E+01
  2.03986E+01  2.03152E+01  2.00527E+01  9.42830E-02  5.14348E-01 -1.67401E-02 -4.17094E-03  3.47566E-05  6.59196E-05 -3.23252E-06  2.15674E-03  1.74108E+00 -4.53293E-04  1.44452E-05 -3.65438E-06  4.74811E-06  1.50000E+01
  2.03787E+01  2.03196E+01  2.00388E+01  8.53051E-02  4.85857E-01 -1.30621E-02 -6.64330E-02  2.61987E-05  3.90807E-05  6.79381E-08  1.99055E-03  1.61322E+00 -3.70800E-04  1.42311E-05 -3.69403E-06  3.59527E-06  1.50000E+01
  2.03792E+01  2.03226E+01  2.00665E+01  8.17859E-02  4.82650E-01 -2.13723E-02 -8.24743E-02  2.51918E-05  2.93956E-05  2.21450E-06  1.92145E-03  1.61577E+00 -7.54971E-04  1.60591E-05 -3.57279E-06  6.62846E-06  1.50000E+01
  2.05323E+01  2.02751E+01  2.00847E+01  1.63567E-01  7.16262E-01 -2.17525E-02  2.36585E-02  4.42017E-06 -2.11539E-05  8.58088E-06  1.92152E-03  2.05773E+00 -6.70768E-04  1.13118E-05 -3.27089E-06  5.62102E-06  1.50000E+01
  2.05317E+01  2.02716E+01  2.00586E+01  1.68454E-01  7.18912E-01 -1.54151E-02  1.07947E-01  2.73401E-06 -2.30212E-05  6.08698E-06  2.15305E-03  2.10836E+00 -9.75419E-05  1.03202E-05 -3.36189E-06  4.07969E-06  1.50000E+01
  2.05492E+01  2.02620E+01  2.00179E+01  1.83406E-01  7.47572E-01 -5.10254E-03 -1.10261E-02 -4.16166E-07 -2.94943E-05  2.43747E-06  2.70084E-03  2.24941E+00 -4.74620E-05  9.54569E-06 -3.55268E-06  1.45900E-06  1.50000E+01
  2.05307E+01  2.02687E+01  2.00050E+01  1.73243E-01  7.20467E-01 -2.06610E-03 -1.58107E-02 -2.21081E-06 -3.43358E-05  5.73513E-07  2.96481E-03  2.18444E+00 -1.79267E-04  9.48586E-06 -3.49817E-06  3.19109E-07  1.50000E+01
  2.08466E+01  2.02259E+01  1.96939E+01  2.67665E-01  1.17045E+00  7.03750E-02 -4.42129E-01 -5.14628E-05 -2.27217E-04 -1.32366E-04  3.34897E-03  3.68651E+00  5.41301E-04  2.71002E-05 -6.42932E-06 -5.41582E-06  1.50000E+01
  2.08487E+01  2.02412E+01  1.96674E+01  2.46146E-01  1.16689E+00  7.47405E-02 -4.85748E-01 -5.51870E-05 -2.44192E-04 -1.57544E-04  3.49312E-03  3.67816E+00  6.95280E-04  2.83719E-05 -5.93831E-06 -5.92522E-06  1.50000E+01
  2.07741E+01  2.02508E+01  1.97006E+01  2.16840E-01  1.04203E+00  5.60834E-02 -4.77751E-01 -8.62784E-05 -2.54167E-04 -1.49264E-04  2.35239E-03  3.27499E+00 -1.70403E-05  2.29802E-05 -4.60411E-06 -9.56466E-06  1.50000E+01
  2.04002E+01  2.03311E+01  2.01360E+01  7.48880E-02  4.95923E-01 -3.86376E-02 -1.01013E-01  1.24615E-05 -2.61672E-05  1.81184E-05  1.84383E-03  1.65692E+00 -1.46761E-03  1.98126E-05 -2.59301E-06  1.15779E-05  1.50000E+01
  2.03807E+01  2.03403E+01  2.01481E+01  6.06865E-02  4.59819E-01 -4.20154E-02 -1.38907E-01  4.95677E-06 -5.67618E-05  3.01684E-05  2.00838E-03  1.51553E+00 -1.77642E-03  2.10862E-05 -1.92646E-06  1.32819E-05  1.50000E+01
  2.04007E+01  2.03392E+01  2.01626E+01  6.49472E-02  4.85329E-01 -4.40524E-02 -1.52402E-01  2.18708E-06 -6.06128E-05  3.48458E-05  2.11866E-03  1.59371E+00 -1.89293E-03  2.04628E-05 -1.15753E-06  1.47266E-05  1.50000E+01
  2.08638E+01  2.02132E+01  1.97059E+01  2.90237E-01  1.20487E+00  7.22632E-02 -4.14424E-01 -3.51001E-05 -1.97471E-04 -1.09558E-04  3.48784E-03  3.79731E+00  7.42196E-04  2.90743E-05 -7.25798E-06 -4.39715E-06  1.50000E+01
  2.07951E+01  2.02666E+01  1.96593E+01  1.97778E-01  1.06570E+00  6.34326E-02 -5.33479E-01 -9.44951E-05 -2.90062E-04 -1.94809E-04  2.73605E-03  3.35453E+00  5.38827E-05  2.47086E-05 -3.59683E-06 -1.02177E-05  1.50000E+01
  2.07760E+01  2.02654E+01  1.96742E+01  1.96207E-01  1.03655E+00  5.89402E-02 -4.95044E-01 -9.83282E-05 -2.82812E-04 -1.81906E-04  2.42254E-03  3.26011E+00  1.22180E-05  2.38295E-05 -3.96615E-06 -1.03419E-05  1.50000E+01
  2.04788E+01  2.03258E+01  2.01953E+01  9.11036E-02  5.98419E-01 -4.63570E-02 -2.03514E-01 -6.67059E-06 -6.67633E-05  4.21949E-05  2.56877E-03  1.86514E+00 -1.93876E-03  1.73090E-05  4.68430E-08  1.55577E-05  1.50000E+01
  2.04974E+01  2.03149E+01  2.01842E+01  1.07480E-01  6.33576E-01 -4.36863E-02 -1.16093E-01  4.25264E-06 -3.30347E-05  2.57794E-05  2.52630E-03  1.93676E+00 -1.51872E-03  1.63032E-05 -8.64367E-07  1.36327E-05  1.50000E+01
  2.04600E+01  2.03368E+01  2.02063E+01  7.45096E-02  5.61542E-01 -4.85991E-02 -2.05740E-01 -1.46401E-05 -9.42358E-05  5.60999E-05  2.55978E-03  1.77678E+00 -2.21750E-03  1.82759E-05  4.87707E-07  1.59996E-05  1.50000E+01
  2.04745E+01  2.02896E+01  1.99664E+01  1.39662E-01  6.34169E-01  8.49644E-03  1.74659E-01  1.44517E-05  9.06304E-06 -1.18355E-06  2.97279E-03  2.00454E+00  3.24697E-04  1.10341E-05 -3.48819E-06 -2.63209E-06  1.50000E+01
  2.08315E+01  2.02547E+01  1.96559E+01  2.22617E-01  1.13151E+00  7.17942E-02 -4.95035E-01 -7.20879E-05 -2.71067E-04 -1.83501E-04  3.33757E-03  3.56562E+00  4.56779E-04  2.65047E-05 -4.39028E-06 -7.95900E-06  1.50000E+01
  2.08339E+01  2.02713E+01  1.96303E+01  1.98692E-01  1.12699E+00  7.46756E-02 -5.34450E-01 -7.58678E-05 -2.94563E-04 -2.16337E-04  3.51281E-03  3.55301E+00  6.05686E-04  2.73280E-05 -3.38308E-06 -8.74275E-06  1.50000E+01
  2.08144E+01  2.02686E+01  1.96446E+01  1.98701E-01  1.09589E+00  6.86962E-02 -5.72856E-01 -8.77931E-05 -2.95911E-04 -2.07774E-04  3.12805E-03  3.45268E+00  2.54086E-04  2.59400E-05 -3.44724E-06 -9.63418E-06  1.50000E+01
  2.07570E+01  2.02648E+01  1.96892E+01  1.94215E-01  1.00844E+00  5.51867E-02 -5.16283E-01 -9.22978E-05 -2.58158E-04 -1.59932E-04  2.22501E-03  3.17009E+00  6.52026E-05  2.26129E-05 -3.57684E-06 -1.11690E-05  1.50000E+01
  2.05513E+01  2.02761E+01  2.01242E+01  1.63796E-01  7.36826E-01 -2.99800E-02  6.53759E-03 -3.90548E-06 -4.63568E-05  1.87310E-05  2.25836E-03  2.17098E+00 -8.98227E-04  1.31242E-05 -3.05229E-06  8.05935E-06  1.50000E+01
  2.05333E+01  2.02861E+01  2.01362E+01  1.49184E-01  7.06421E-01 -3.30873E-02 -3.07418E-02 -3.86245E-06 -4.80375E-05  2.16163E-05  2.29333E-03  2.06161E+00 -1.05550E-03  1.37035E-05 -2.71761E-06  9.08006E-06  1.50000E+01
  2.03997E+01  2.03244E+01  2.01087E+01  8.31666E-02  5.04368E-01 -3.21475E-02 -1.13307E-01  1.65523E-05 -8.31304E-06  1.13786E-05  1.89000E-03  1.71628E+00 -1.22865E-03  1.83809E-05 -3.13797E-06  1.00001E-05  1.50000E+01
  2.03797E+01  2.03271E+01  2.00941E+01  7.64854E-02  4.77291E-01 -2.91378E-02 -1.20455E-01  1.89535E-05  1.76256E-06  7.99839E-06  1.89581E-03  1.59981E+00 -1.12864E-03  1.78440E-05 -3.31587E-06  8.71700E-06  1.50000E+01
  2.01205E+01  2.04062E+01  2.02248E+01 -4.07174E-02 -2.00100E-01  0.00000E+00 -4.47632E-01  3.42451E-05 -1.01345E-04  2.70260E-05 -5.13843E+00  1.96758E-02 -2.60123E+00  2.84199E-05  2.72736E-06  3.12850E-06  1.50000E+01
  2.09052E+01  2.02353E+01  1.96504E+01  2.68652E-01  1.26493E+00  9.23517E-02 -6.70265E-02  4.33860E-06 -5.05854E-05 -3.48723E-05  2.44518E-02  2.06266E+00  1.17379E-02  1.72829E-05 -3.29305E-06 -2.05036E-06  1.50000E+01
  2.08880E+01  2.02482E+01  1.96389E+01  2.45254E-01  1.23030E+00  8.91486E-02 -3.28857E-01 -1.25936E-05 -1.72130E-04 -1.24363E-04  3.75679E-03  3.88384E+00  1.46077E-03  3.45963E-05 -5.92316E-06 -5.23940E-06  1.50000E+01
  2.07781E+01  2.02810E+01  1.96483E+01  1.73859E-01  1.03065E+00  6.11209E-02 -5.92645E-01 -1.07625E-04 -3.06075E-04 -2.14047E-04  2.52476E-03  3.24442E+00  4.69660E-05  2.43134E-05 -2.75408E-06 -1.15613E-05  1.50000E+01
  2.07590E+01  2.02798E+01  1.96631E+01  1.72797E-01  1.00222E+00  5.74164E-02 -5.40765E-01 -1.05690E-04 -2.88566E-04 -1.94168E-04  2.27584E-03  3.15272E+00  9.61238E-05  2.34215E-05 -2.91797E-06 -1.18687E-05  1.50000E+01
  2.04171E+01  2.03070E+01  1.99825E+01  1.08135E-01  5.45508E-01  4.40394E-03 -3.45448E-02  1.40845E-05  4.65854E-06 -9.87610E-07  2.50874E-03  1.77555E+00  3.09763E-04  1.18162E-05 -3.49269E-06 -1.48768E-06  1.50000E+01
  2.05339E+01  2.02935E+01  2.01618E+01  1.39317E-01  6.99526E-01 -3.79446E-02  2.98612E-03 -7.37945E-06 -5.85381E-05  2.91298E-05  2.75765E-03  2.08155E+00 -7.35905E-04  1.48292E-05 -2.10357E-06  1.09964E-05  1.50000E+01
  2.04206E+01  2.03382E+01  2.01773E+01  6.86970E-02  5.10937E-01 -4.58953E-02 -1.87152E-01 -3.50933E-06 -7.27836E-05  4.16136E-05  2.30373E-03  1.66079E+00 -2.09030E-03  1.94918E-05 -5.83586E-07  1.51129E-05  1.50000E+01
  2.04403E+01  2.03374E+01  2.01919E+01  7.18836E-02  5.36383E-01 -4.74354E-02 -2.13280E-01 -9.29935E-06 -8.44663E-05  4.87778E-05  2.45364E-03  1.71892E+00 -2.23373E-03  1.87165E-05 -8.00081E-08  1.53351E-05  1.50000E+01
  2.01618E+01  2.03939E+01  2.01764E+01 -3.26431E-02  8.85003E-02 -3.69007E-02 -5.13780E-01  1.40474E-05 -2.16778E-04  6.69882E-05  1.56636E-03  3.20132E-01 -1.27354E-02  3.61988E-05 -2.10926E-06  4.91898E-06  1.50000E+01
  2.01414E+01  2.03924E+01  2.01634E+01 -3.51342E-02  7.95111E-02 -3.35972E-02 -5.99307E-01  1.66262E-05 -2.22863E-04  5.90002E-05  9.04034E-06  2.99071E-01 -1.27064E-02  3.69495E-05 -2.44443E-06  2.96080E-06  1.50000E+01
  2.08365E+01  2.02890E+01  1.96053E+01  1.72951E-01  1.12213E+00  7.67455E-02 -6.29611E-01 -8.18282E-05 -3.23317E-04 -2.57597E-04  3.72548E-03  3.53973E+00  7.92647E-04  2.83014E-05 -2.38566E-06 -9.27972E-06  1.50000E+01
  2.03589E+01  2.03241E+01  2.00251E+01  7.61262E-02  4.58102E-01 -9.21232E-03 -1.05050E-01  2.57489E-05  4.01237E-05  2.86372E-07  1.95077E-03  1.50216E+00 -3.10598E-04  1.41322E-05 -3.67669E-06  2.37518E-06  1.50000E+01
  2.03593E+01  2.03263E+01  2.00525E+01  7.36004E-02  4.55563E-01 -1.78194E-02 -9.13535E-02  2.53010E-05  3.55546E-05 -1.36191E-07  1.91014E-03  1.50333E+00 -6.84093E-04  1.51131E-05 -3.57654E-06  4.41312E-06  1.50000E+01
  2.05507E+01  2.02705E+01  2.00980E+01  1.71172E-01  7.41412E-01 -2.42867E-02  4.65731E-04 -2.29155E-06 -3.97272E-05  1.32118E-05  2.20613E-03  2.17569E+00 -6.90356E-04  1.18671E-05 -3.31069E-06  6.30224E-06  1.50000E+01
  2.05501E+01  2.02663E+01  2.00716E+01  1.76922E-01  7.44709E-01 -1.81376E-02 -1.58771E-02 -2.82025E-06 -3.87655E-05  1.00203E-05  2.29109E-03  2.19524E+00 -3.70540E-04  1.08631E-05 -3.42228E-06  4.95306E-06  1.50000E+01
  2.03813E+01  2.03489E+01  2.01743E+01  5.01908E-02  4.47669E-01 -4.66996E-02 -1.52854E-01 -3.51924E-06 -8.51687E-05  4.50401E-05  2.11033E-03  1.46272E+00 -2.18580E-03  2.11910E-05 -8.39988E-07  1.45862E-05  1.50000E+01
  2.03619E+01  2.03586E+01  2.01859E+01  3.56067E-02  4.08994E-01 -4.88699E-02 -1.79304E-01 -6.93361E-06 -1.03363E-04  5.47738E-05  2.15402E-03  1.33055E+00 -2.63743E-03  2.18935E-05 -2.29416E-07  1.51075E-05  1.50000E+01
  2.03819E+01  2.03585E+01  2.02001E+01  3.78763E-02  4.33199E-01 -4.99129E-02 -2.24265E-01 -1.03526E-05 -1.07187E-04  6.05172E-05  2.19517E-03  1.40597E+00 -2.62244E-03  2.10896E-05  6.73911E-07  1.65150E-05  1.50000E+01
  2.07400E+01  2.02791E+01  1.96781E+01  1.71414E-01  9.74767E-01  5.43982E-02 -5.31288E-01 -9.71952E-05 -2.62230E-04 -1.70789E-04  2.14645E-03  3.06514E+00  2.14847E-04  2.25227E-05 -2.40284E-06 -1.29864E-05  1.50000E+01
  2.03981E+01  2.03131E+01  2.00247E+01  9.69585E-02  5.16191E-01 -8.37851E-03  2.13084E-03  2.61503E-05  4.11949E-05 -5.44453E-07  2.25449E-03  1.71868E+00 -7.73383E-05  1.32712E-05 -3.74018E-06  2.08615E-06  1.50000E+01
  2.03978E+01  2.03125E+01  1.99969E+01  9.77398E-02  5.16232E-01  7.18501E-05  1.38234E-02  2.27781E-05  3.14883E-05 -1.05034E-07  2.25517E-03  1.69255E+00  1.70219E-04  1.28189E-05 -3.72151E-06 -2.14528E-07  1.50000E+01
  2.05496E+01  2.02635E+01  2.00449E+01  1.81036E-01  7.46737E-01 -1.16971E-02  2.10894E-02 -2.28096E-06 -3.54622E-05  6.27483E-06  2.45231E-03  2.22387E+00 -5.40512E-05  1.00237E-05 -3.49292E-06  3.41281E-06  1.50000E+01
  2.08168E+01  2.02855E+01  1.96193E+01  1.74218E-01  1.09068E+00  7.08251E-02 -6.26879E-01 -9.53363E-05 -3.23486E-04 -2.46409E-04  3.31026E-03  3.43789E+00  3.73492E-04  2.66617E-05 -2.41977E-06 -1.03447E-05  1.50000E+01
  2.07974E+01  2.02829E+01  1.96337E+01  1.74419E-01  1.06015E+00  6.55886E-02 -6.05586E-01 -1.04854E-04 -3.18778E-04 -2.32509E-04  2.89192E-03  3.33980E+00  1.32350E-04  2.52146E-05 -2.49070E-06 -1.11066E-05  1.50000E+01
  2.03802E+01  2.03330E+01  2.01213E+01  6.94430E-02  4.69695E-01 -3.60936E-02 -9.49281E-02  1.49066E-05 -1.91987E-05  1.49173E-05  1.93104E-03  1.56378E+00 -1.45720E-03  1.99158E-05 -2.89358E-06  1.08995E-05  1.50000E+01
  2.03602E+01  2.03352E+01  2.01069E+01  6.35083E-02  4.43923E-01 -3.33723E-02 -9.31789E-02  1.76085E-05 -1.01448E-05  1.18317E-05  1.94019E-03  1.46794E+00 -1.44004E-03  1.99052E-05 -3.09942E-06  1.01448E-05  1.50000E+01
  2.05855E+01  2.02478E+01  1.99896E+01  2.05333E-01  8.01151E-01  1.94251E-03 -2.24297E-03 -1.50052E-06 -3.18471E-05 -1.33987E-06  2.68814E-03  2.43516E+00  9.13603E-05  9.72556E-06 -3.77962E-06 -7.20056E-07  1.50000E+01
  2.05672E+01  2.02554E+01  1.99764E+01  1.94027E-01  7.73850E-01  5.13566E-03  5.12713E-02  6.02096E-06 -1.35634E-05 -2.41827E-06  2.79591E-03  2.35810E+00  8.51986E-05  9.93039E-06 -3.73663E-06 -1.79034E-06  1.50000E+01
  2.05674E+01  2.02548E+01  2.00039E+01  1.94584E-01  7.74524E-01 -1.49711E-03  5.29629E-02  6.72656E-06 -1.10330E-05  4.70848E-07  2.67796E-03  2.34279E+00  3.18867E-05  9.55292E-06 -3.66771E-06  3.37183E-07  1.50000E+01
  2.08194E+01  2.03034E+01  1.95946E+01  1.47971E-01  1.08510E+00  7.21392E-02 -6.72077E-01 -1.04387E-04 -3.58604E-04 -2.94492E-04  3.53270E-03  3.42236E+00  5.29447E-04  2.70960E-05 -1.43760E-06 -1.06494E-05  1.50000E+01
  2.05527E+01  2.02910E+01  2.01761E+01  1.43729E-01  7.23986E-01 -3.96879E-02 -3.53112E-02 -1.33364E-05 -7.32818E-05  3.66920E-05  2.65421E-03  2.17464E+00 -8.39124E-04  1.50835E-05 -1.83377E-06  1.16314E-05  1.50000E+01
  2.05519E+01  2.02829E+01  2.01502E+01  1.54696E-01  7.30986E-01 -3.51174E-02 -4.50188E-02 -1.01956E-05 -6.44573E-05  2.81106E-05  2.43238E-03  2.17376E+00 -9.28344E-04  1.42019E-05 -2.50960E-06  1.00641E-05  1.50000E+01
  2.03597E+01  2.03300E+01  2.00798E+01  6.93898E-02  4.50862E-01 -2.59584E-02 -2.96876E-02  2.57471E-05  2.95426E-05  1.19134E-06  1.88632E-03  1.49248E+00 -1.05460E-03  1.72291E-05 -3.57152E-06  6.43932E-06  1.50000E+01
  2.04019E+01  2.03586E+01  2.02142E+01  3.96597E-02  4.57837E-01 -5.07567E-02 -2.74214E-01 -1.81030E-05 -1.25267E-04  7.21093E-05  2.28075E-03  1.47924E+00 -2.68991E-03  2.04357E-05  1.11955E-06  1.67090E-05  1.50000E+01
  2.04218E+01  2.03588E+01  2.02284E+01  4.09536E-02  4.82734E-01 -5.13686E-02 -2.59575E-01 -2.39138E-05 -1.36715E-04  8.13579E-05  2.35135E-03  1.55043E+00 -2.73723E-03  2.01910E-05  1.58329E-06  1.71518E-05  1.50000E+01
  2.04212E+01  2.03480E+01  2.02031E+01  5.57605E-02  4.97826E-01 -4.93804E-02 -2.34419E-01 -1.53240E-05 -1.09061E-04  6.19247E-05  2.36944E-03  1.60482E+00 -2.43507E-03  1.96314E-05  5.36533E-07  1.61933E-05  1.50000E+01
  2.01211E+01  2.03911E+01  2.01506E+01 -3.86727E-02  7.33591E-02 -2.91414E-02 -7.40148E-01  2.00139E-05 -2.42604E-04  5.38297E-05 -2.85277E-03  2.88095E-01 -1.14558E-02  3.83140E-05 -2.23922E-06  2.02052E-06  1.50000E+01
  2.01005E+01  2.03941E+01  2.01625E+01 -4.44536E-02 -7.64141E-03 -1.89999E-02 -8.22251E-01  4.43335E-05 -2.48300E-04  4.45339E-05 -1.51734E-02  5.34309E-02 -5.23497E-03  4.39279E-05  9.60027E-07  2.47798E-06  1.50000E+01