 TITLE="3D TRIANGULAR SURFACE DATA"
VARIABLES="X","Y","Z","U","V","W","P", "Fex", "Fey", "Fez","Finx","Finy","Finz","WSSx","WSSy","WSSz","AMForce"
 ZONE T="unstruc"N=        1757 E=        3355 F=FEPOINT  ET=TRIANGLE
  2.03625E+01  2.00247E+01  2.00979E+01  3.33550E-01 -1.21311E+00  3.02196E-03  1.11366E+00 -5.78781E-04  6.11538E-04  1.57178E-04  3.10095E-03 -5.01729E+00  1.66864E-04  2.55754E-05  2.67993E-05 -1.54152E-06  1.50000E+01
  2.03786E+01  2.00412E+01  2.00981E+01  3.45980E-01 -1.22826E+00  3.25761E-03  1.13213E+00 -2.77979E-04  2.90076E-04  7.35527E-05  2.42407E-03 -2.38091E+00 -4.14910E-04  1.20818E-05  1.28350E-05 -8.44398E-07  1.50000E+01
  2.03736E+01  2.00411E+01  2.00768E+01  3.45231E-01 -1.22307E+00  2.85138E-03  1.12406E+00 -4.09866E-04  4.29380E-04  8.41699E-05  1.54330E-03 -3.50630E+00  1.09340E-03  1.74465E-05  1.83313E-05 -1.15218E-06  1.50000E+01
  2.03632E+01  2.00155E+01  2.01290E+01  3.27456E-01 -1.21510E+00  3.77432E-03  1.10197E+00 -4.83643E-04  5.09617E-04  1.71582E-04  1.70834E-03 -4.23906E+00  6.24321E-04  2.24762E-05  2.40232E-05 -1.81624E-06  1.50000E+01
  2.03776E+01  2.00339E+01  2.01192E+01  3.40894E-01 -1.22864E+00  3.60080E-03  1.12571E+00 -4.07276E-04  4.23595E-04  1.32231E-04  8.23905E-04 -3.49940E+00 -1.41038E-03  1.83070E-05  1.97258E-05 -1.50670E-06  1.50000E+01
  2.03907E+01  2.00505E+01  2.01102E+01  3.52860E-01 -1.24034E+00  3.96151E-03  1.15748E+00 -3.56749E-04  3.68764E-04  1.04648E-04  1.25279E-03 -3.03977E+00  3.53488E-04  1.56684E-05  1.69540E-05 -1.41516E-06  1.50000E+01
  2.03885E+01  2.00546E+01  2.00863E+01  3.55208E-01 -1.23707E+00  3.19538E-03  1.13508E+00 -3.58240E-04  3.72009E-04  8.10257E-05  1.82517E-03 -3.04950E+00 -4.73189E-04  1.51455E-05  1.61043E-05 -1.10311E-06  1.50000E+01
  2.03702E+01  2.00424E+01  2.00497E+01  3.45570E-01 -1.21926E+00  1.89572E-03  1.12322E+00 -4.46391E-04  4.70295E-04  6.03948E-05  1.58748E-03 -3.80736E+00  3.24159E-04  1.84702E-05  1.90972E-05 -8.45117E-07  1.50000E+01
  2.03571E+01  2.00263E+01  2.00663E+01  3.33964E-01 -1.20694E+00  2.08199E-03  1.10478E+00 -4.90554E-04  5.22179E-04  9.21374E-05  1.80877E-03 -4.24970E+00 -2.80289E-04  2.12595E-05  2.18999E-05 -1.11420E-06  1.50000E+01
  2.03543E+01  2.00277E+01  2.00374E+01  3.34590E-01 -1.20377E+00  1.19267E-03  1.10420E+00 -4.60532E-04  4.91131E-04  4.87347E-05  1.79169E-03 -3.98410E+00 -7.56217E-05  1.92604E-05  1.96034E-05 -5.98461E-07  1.50000E+01
  2.03794E+01  2.00262E+01  2.01455E+01  3.36092E-01 -1.23194E+00  4.36323E-03  1.12200E+00 -4.34081E-04  4.50934E-04  1.70437E-04  1.21152E-03 -3.77715E+00 -2.37410E-04  2.02542E-05  2.21664E-05 -1.90367E-06  1.50000E+01
  2.03926E+01  2.00443E+01  2.01348E+01  3.48993E-01 -1.24380E+00  4.50664E-03  1.14010E+00 -4.09865E-04  4.22020E-04  1.46307E-04  7.90241E-04 -3.51568E+00 -3.77085E-04  1.85415E-05  2.04646E-05 -2.02870E-06  1.50000E+01
  2.03284E+01  1.99902E+01  2.00971E+01  3.06903E-01 -1.17852E+00  2.31619E-03  1.07538E+00 -4.66217E-04  5.04933E-04  1.32970E-04  2.05948E-03 -4.17922E+00  3.98946E-05  2.17739E-05  2.22253E-05 -1.05272E-06  1.50000E+01
  2.03258E+01  1.99943E+01  2.00681E+01  3.09576E-01 -1.17528E+00  1.63763E-03  1.06785E+00 -4.58578E-04  4.98831E-04  9.23350E-05  2.17679E-03 -4.10634E+00  4.21720E-06  2.06515E-05  2.08146E-05 -8.46207E-07  1.50000E+01
  2.03113E+01  1.99768E+01  2.00824E+01  2.95950E-01 -1.16007E+00  1.71013E-03  1.05083E+00 -4.34487E-04  4.77754E-04  1.08255E-04  2.22658E-03 -3.96430E+00  2.04737E-05  2.04805E-05  2.05061E-05 -7.54913E-07  1.50000E+01
  2.03461E+01  2.00035E+01  2.01124E+01  3.17787E-01 -1.19715E+00  2.99222E-03  1.07540E+00 -5.10025E-04  5.44467E-04  1.62836E-04  2.42759E-03 -4.50542E+00 -5.91592E-05  2.34737E-05  2.44757E-05 -1.39919E-06  1.50000E+01
  2.03316E+01  1.99842E+01  2.01257E+01  3.02965E-01 -1.18242E+00  2.87227E-03  1.05958E+00 -4.51759E-04  4.86845E-04  1.65614E-04  1.99537E-03 -4.08416E+00 -4.48649E-05  2.20415E-05  2.29447E-05 -1.41767E-06  1.50000E+01
  2.03489E+01  1.99962E+01  2.01411E+01  3.12918E-01 -1.20110E+00  3.59323E-03  1.08038E+00 -4.56941E-04  4.85043E-04  1.82438E-04  1.80582E-03 -4.09051E+00  1.44086E-04  2.20424E-05  2.35186E-05 -1.75469E-06  1.50000E+01
  2.03431E+01  2.00087E+01  2.00826E+01  3.20996E-01 -1.19338E+00  2.27421E-03  1.08431E+00 -5.12226E-04  5.49722E-04  1.21636E-04  2.17808E-03 -4.51000E+00  2.96640E-05  2.29303E-05  2.35174E-05 -1.12362E-06  1.50000E+01
  2.03402E+01  2.00114E+01  2.00531E+01  3.22509E-01 -1.18991E+00  1.44610E-03  1.09442E+00 -4.68472E-04  5.04402E-04  7.20178E-05  1.96318E-03 -4.12273E+00 -8.28149E-05  2.02685E-05  2.05342E-05 -7.42523E-07  1.50000E+01
  2.04029E+01  2.00668E+01  2.00984E+01  3.63977E-01 -1.25073E+00  3.97479E-03  1.15239E+00 -3.99823E-04  4.12298E-04  1.01829E-04  1.46406E-03 -3.38119E+00  1.00189E-04  1.69576E-05  1.83051E-05 -1.52239E-06  1.50000E+01
  2.04007E+01  2.00702E+01  2.00728E+01  3.65756E-01 -1.24751E+00  3.04105E-03  1.15517E+00 -4.15201E-04  4.29880E-04  7.77682E-05  1.74108E-03 -3.49568E+00 -1.78762E-04  1.73465E-05  1.84547E-05 -1.31370E-06  1.50000E+01
  2.04053E+01  2.00618E+01  2.01236E+01  3.61198E-01 -1.25458E+00  4.77798E-03  1.15390E+00 -4.10880E-04  4.21088E-04  1.31757E-04  1.36343E-03 -3.48593E+00  1.77763E-04  1.79033E-05  1.97082E-05 -1.88825E-06  1.50000E+01
  2.03856E+01  2.00566E+01  2.00611E+01  3.55965E-01 -1.23378E+00  2.48006E-03  1.13404E+00 -4.18935E-04  4.36365E-04  6.70808E-05  1.16702E-03 -3.54022E+00  2.26281E-04  1.72885E-05  1.81681E-05 -1.07992E-06  1.50000E+01
  2.03987E+01  2.00723E+01  2.00464E+01  3.66700E-01 -1.24505E+00  2.09817E-03  1.15514E+00 -4.40607E-04  4.56789E-04  5.25495E-05  1.61149E-03 -3.67908E+00  8.88778E-05  1.79539E-05  1.88732E-05 -9.43327E-07  1.50000E+01
  2.03385E+01  2.00128E+01  2.00241E+01  3.23312E-01 -1.18785E+00  6.10681E-04  1.09316E+00 -4.50189E-04  4.85301E-04  3.18030E-05  2.13747E-03 -3.95837E+00 -9.54223E-05  1.89101E-05  1.89974E-05 -3.45958E-07  1.50000E+01
  2.03684E+01  2.00433E+01  2.00218E+01  3.45954E-01 -1.21715E+00  8.78197E-04  1.11403E+00 -4.54285E-04  4.79419E-04  2.72727E-05  1.86817E-03 -3.86253E+00  9.02508E-05  1.82491E-05  1.86903E-05 -4.10567E-07  1.50000E+01
  2.03531E+01  2.00283E+01  2.00089E+01  3.34882E-01 -1.20233E+00  2.71612E-04  1.10242E+00 -4.51349E-04  4.81753E-04  1.17176E-05  2.09218E-03 -3.90312E+00 -6.33826E-05  1.85028E-05  1.87305E-05 -1.62212E-07  1.50000E+01
  2.03352E+01  1.99768E+01  2.01533E+01  2.98031E-01 -1.18703E+00  3.31657E-03  1.06835E+00 -4.28301E-04  4.58719E-04  1.90743E-04  1.86967E-03 -3.93825E+00  1.10182E-05  2.17326E-05  2.31075E-05 -1.61263E-06  1.50000E+01
  2.03526E+01  1.99880E+01  2.01683E+01  3.07653E-01 -1.20605E+00  3.99876E-03  1.08679E+00 -4.29776E-04  4.53704E-04  2.04259E-04  1.72697E-03 -3.91814E+00  8.43380E-05  2.19007E-05  2.39262E-05 -2.00392E-06  1.50000E+01
  2.06606E+01  2.02412E+01  1.96707E+01  4.61554E-01 -1.47850E+00 -4.10348E-02  9.30765E-01 -3.79201E-04  3.92102E-04 -2.54426E-04  3.15584E-03 -4.65368E+00  6.04054E-04  2.74639E-05  3.83324E-05  9.07187E-06  1.50000E+01
  2.06434E+01  2.02325E+01  1.96860E+01  4.58837E-01 -1.46233E+00 -3.59956E-02  9.98275E-01 -4.12003E-04  4.12624E-04 -2.60090E-04  3.11419E-03 -4.59872E+00  7.02300E-04  2.72043E-05  3.77660E-05  8.32512E-06  1.50000E+01
  2.06537E+01  2.02524E+01  1.96975E+01  4.61019E-01 -1.45900E+00 -4.06304E-02  8.95206E-01 -3.69211E-04  3.88799E-04 -2.24320E-04  3.41498E-03 -4.58812E+00  6.75868E-04  2.82239E-05  3.89532E-05  1.00987E-05  1.50000E+01
  2.06369E+01  2.02433E+01  1.97129E+01  4.59110E-01 -1.44453E+00 -3.51792E-02  9.94292E-01 -4.01251E-04  4.09366E-04 -2.29499E-04  3.35915E-03 -4.53951E+00  7.56478E-04  2.73281E-05  3.75589E-05  9.28028E-06  1.50000E+01
  2.06475E+01  2.02627E+01  1.97248E+01  4.60250E-01 -1.44065E+00 -3.95151E-02  9.58312E-01 -3.53613E-04  3.78104E-04 -1.92018E-04  3.67910E-03 -4.52684E+00  7.35556E-04  2.88218E-05  3.96346E-05  1.18664E-05  1.50000E+01
  2.07140E+01  2.02641E+01  1.96254E+01  4.68839E-01 -1.53297E+00 -5.72239E-02  6.44633E-01 -2.40194E-04  3.05241E-04 -2.07087E-04  3.03195E-03 -4.83572E+00 -2.77981E-04  3.17647E-05  4.29385E-05  1.20399E-05  1.50000E+01
  2.06958E+01  2.02571E+01  1.96404E+01  4.66399E-01 -1.51368E+00 -5.18612E-02  7.37591E-01 -2.91475E-04  3.39606E-04 -2.29185E-04  3.12762E-03 -4.77188E+00  1.21526E-04  2.94138E-05  4.04067E-05  1.06973E-05  1.50000E+01
  2.07060E+01  2.02767E+01  1.96516E+01  4.65232E-01 -1.50792E+00 -5.92134E-02  5.30549E-01 -1.97036E-04  2.64486E-04 -1.55086E-04  3.00293E-03 -4.75462E+00 -3.53320E-04  3.20960E-05  4.38914E-05  1.37632E-05  1.50000E+01
  2.04083E+01  2.00556E+01  2.01490E+01  3.57672E-01 -1.25930E+00  5.41617E-03  1.15098E+00 -4.27681E-04  4.36292E-04  1.64616E-04  1.36723E-03 -3.67012E+00 -1.62756E-04  1.94395E-05  2.18149E-05 -2.21434E-06  1.50000E+01
  2.06986E+01  2.02885E+01  1.96784E+01  4.61100E-01 -1.48358E+00 -6.01293E-02  5.30114E-01 -1.78611E-04  2.48378E-04 -1.22534E-04  3.00528E-03 -4.67593E+00 -3.90463E-04  3.34599E-05  4.57358E-05  1.57567E-05  1.50000E+01
  2.07164E+01  2.02959E+01  1.96630E+01  4.61520E-01 -1.50038E+00 -6.73432E-02 -1.33095E-01 -3.70237E-05  1.21434E-04 -3.49650E-05  2.32231E-03 -4.73166E+00 -1.27252E-03  3.56973E-05  4.86861E-05  1.79273E-05  1.50000E+01
  2.04123E+01  2.00880E+01  2.00321E+01  3.77155E-01 -1.25640E+00  1.63859E-03  1.16824E+00 -4.50900E-04  4.64862E-04  3.63953E-05  1.92219E-03 -3.75621E+00  5.43423E-05  1.80403E-05  1.89933E-05 -6.76528E-07  1.50000E+01
  2.03975E+01  2.00735E+01  2.00193E+01  3.67198E-01 -1.24357E+00  1.02278E-03  1.15465E+00 -4.53541E-04  4.70643E-04  2.25253E-05  1.88734E-03 -3.77388E+00  1.32843E-04  1.79765E-05  1.87385E-05 -4.12263E-07  1.50000E+01
  2.03660E+01  2.00074E+01  2.01567E+01  3.22253E-01 -1.21925E+00  4.28132E-03  1.10492E+00 -4.42977E-04  4.63942E-04  1.91437E-04  1.49786E-03 -3.93903E+00  1.85256E-04  2.14691E-05  2.34567E-05 -1.98992E-06  1.50000E+01
  2.03699E+01  1.99989E+01  2.01831E+01  3.17009E-01 -1.22474E+00  4.65207E-03  1.09631E+00 -4.28583E-04  4.45239E-04  2.15739E-04  1.80490E-03 -3.87416E+00  2.61381E-05  2.14618E-05  2.40896E-05 -2.34884E-06  1.50000E+01
  2.03828E+01  2.00183E+01  2.01717E+01  3.31319E-01 -1.23695E+00  4.93244E-03  1.12092E+00 -4.33670E-04  4.47474E-04  2.00320E-04  1.63963E-03 -3.82557E+00 -6.29281E-05  2.08280E-05  2.33538E-05 -2.25390E-06  1.50000E+01
  2.03378E+01  2.00130E+01  1.99956E+01  3.23370E-01 -1.18711E+00 -2.16855E-04  1.09256E+00 -4.40126E-04  4.74590E-04 -5.03262E-06  2.25368E-03 -3.87058E+00 -9.79040E-05  1.82965E-05  1.83364E-05  5.14774E-08  1.50000E+01
  2.03678E+01  2.00433E+01  1.99938E+01  3.45902E-01 -1.21645E+00 -1.44072E-04  1.11252E+00 -4.53679E-04  4.79085E-04 -7.38492E-06  2.14260E-03 -3.85425E+00  5.60606E-06  1.80361E-05  1.84246E-05  1.02509E-07  1.50000E+01
  2.03529E+01  2.00277E+01  1.99807E+01  3.34505E-01 -1.20217E+00 -6.38321E-04  1.10233E+00 -4.45529E-04  4.75572E-04 -2.37561E-05  2.22356E-03 -3.85145E+00 -6.73279E-05  1.82958E-05  1.85272E-05  2.59650E-07  1.50000E+01
  2.06528E+01  2.02907E+01  1.97651E+01  4.56698E-01 -1.41726E+00 -4.20957E-02  6.74970E-01 -3.09391E-04  3.54301E-04 -1.39173E-04  4.16640E-03 -4.45019E+00  6.55190E-04  3.19923E-05  4.21647E-05  1.48228E-05  1.50000E+01
  2.06691E+01  2.03003E+01  1.97494E+01  4.54426E-01 -1.42712E+00 -4.99299E-02  6.62943E-01 -2.41657E-04  3.02060E-04 -1.18117E-04  3.77776E-03 -4.48779E+00  2.86791E-04  3.26121E-05  4.32269E-05  1.62028E-05  1.50000E+01
  2.06582E+01  2.02817E+01  1.97370E+01  4.58802E-01 -1.43493E+00 -4.44369E-02  7.43275E-01 -3.07638E-04  3.50170E-04 -1.58165E-04  3.89318E-03 -4.50950E+00  6.15267E-04  3.01765E-05  4.13487E-05  1.45515E-05  1.50000E+01
  2.04180E+01  2.00791E+01  2.01114E+01  3.72798E-01 -1.26478E+00  4.83195E-03  1.16907E+00 -4.30128E-04  4.39744E-04  1.21487E-04  1.77885E-03 -3.62461E+00  1.16430E-04  1.84395E-05  2.02417E-05 -1.90908E-06  1.50000E+01
  2.01234E+01  1.97514E+01  2.01911E+01  8.89806E-02 -9.12415E-01 -1.00021E-03  7.03380E-01 -2.41339E-04  3.43356E-04  2.05981E-04  2.34373E-03 -2.86645E+00 -7.94340E-04  3.92635E-05  3.54989E-05 -1.43401E-07  1.50000E+01
  2.01097E+01  1.97319E+01  2.02017E+01  6.85619E-02 -8.89612E-01 -6.93138E-04  8.58728E-01 -2.41882E-04  3.68537E-04  2.30537E-04  1.99652E-03 -2.79596E+00 -1.05653E-03  4.86202E-05  4.38099E-05 -9.36991E-07  1.50000E+01
  2.01290E+01  1.97399E+01  2.02146E+01  7.86113E-02 -9.15056E-01 -6.41482E-04  7.96025E-01 -2.54561E-04  3.78341E-04  2.49181E-04  1.70431E-03 -2.88317E+00 -9.21385E-04  5.00941E-05  4.55341E-05  2.89788E-07  1.50000E+01
  2.07026E+01  2.03178E+01  1.97179E+01  4.49349E-01 -1.45015E+00 -6.74260E-02 -2.43962E-02 -3.97317E-05  1.36862E-04 -2.73438E-05  1.93498E-03 -4.56958E+00 -1.43611E-03  4.20855E-05  5.49721E-05  2.20997E-05  1.50000E+01
  2.07200E+01  2.03255E+01  1.97023E+01  4.47690E-01 -1.46440E+00 -7.62449E-02 -1.46358E-01 -1.77201E-05  6.97887E-05 -1.22231E-05 -9.24371E-03 -2.31229E+00 -1.85677E-02  2.21387E-05  2.89817E-05  1.19436E-05  1.50000E+01
  2.07092E+01  2.03073E+01  1.96902E+01  4.55622E-01 -1.47478E+00 -6.80628E-02  1.61574E-01 -7.54773E-05  1.63702E-04 -5.06105E-05  2.17329E-03 -4.64918E+00 -1.35316E-03  3.81056E-05  5.14099E-05  2.03121E-05  1.50000E+01
  2.06642E+01  2.02719E+01  1.97093E+01  4.60778E-01 -1.45399E+00 -4.59291E-02  7.57337E-01 -3.12615E-04  3.50885E-04 -1.81935E-04  3.62836E-03 -4.57284E+00  5.60065E-04  3.01424E-05  4.15642E-05  1.29979E-05  1.50000E+01
  2.06748E+01  2.02908E+01  1.97213E+01  4.57780E-01 -1.44702E+00 -5.19113E-02  5.51177E-01 -2.50225E-04  3.08523E-04 -1.39229E-04  3.59559E-03 -4.55316E+00  2.48219E-04  3.20305E-05  4.39206E-05  1.62097E-05  1.50000E+01
  2.03381E+01  2.00118E+01  1.99676E+01  3.22589E-01 -1.18750E+00 -1.00838E-03  1.09334E+00 -4.34721E-04  4.68887E-04 -4.02947E-05  2.21584E-03 -3.81878E+00 -7.10704E-05  1.83981E-05  1.85002E-05  4.08995E-07  1.50000E+01
  2.03238E+01  1.99968E+01  2.00392E+01  3.11107E-01 -1.17292E+00  8.91764E-04  1.06795E+00 -4.44068E-04  4.83491E-04  5.18498E-05  2.20478E-03 -3.97180E+00 -6.98013E-05  1.91952E-05  1.91492E-05 -4.79646E-07  1.50000E+01
  2.03227E+01  1.99978E+01  2.00105E+01  3.11710E-01 -1.17169E+00  1.43494E-04  1.06673E+00 -4.32439E-04  4.71272E-04  1.39991E-05  2.28565E-03 -3.87577E+00 -9.52433E-05  1.83275E-05  1.81936E-05 -1.28386E-07  1.50000E+01
  2.07040E+01  2.02442E+01  1.96145E+01  4.68452E-01 -1.53760E+00 -4.99761E-02  8.82793E-01 -2.89910E-04  3.35878E-04 -2.49987E-04  2.99775E-03 -4.84960E+00  8.14437E-05  2.82218E-05  3.90968E-05  9.90580E-06  1.50000E+01
  2.06310E+01  2.02531E+01  1.97404E+01  4.59167E-01 -1.42795E+00 -3.37635E-02  9.76422E-01 -3.89315E-04  4.02852E-04 -1.98886E-04  3.60282E-03 -4.48213E+00  7.92838E-04  2.83106E-05  3.83857E-05  1.05923E-05  1.50000E+01
  2.06418E+01  2.02721E+01  1.97526E+01  4.59300E-01 -1.42358E+00 -3.76867E-02  8.93363E-01 -3.51901E-04  3.81470E-04 -1.68863E-04  3.95882E-03 -4.46841E+00  7.87074E-04  3.02255E-05  4.07009E-05  1.30432E-05  1.50000E+01
  2.03091E+01  1.99803E+01  2.00538E+01  2.98259E-01 -1.15749E+00  1.09247E-03  1.04204E+00 -4.30000E-04  4.73797E-04  7.03829E-05  2.32157E-03 -3.91422E+00 -2.37197E-05  1.94708E-05  1.92939E-05 -5.55278E-07  1.50000E+01
  2.02928E+01  1.99662E+01  2.00397E+01  2.86707E-01 -1.13968E+00  6.46866E-04  1.02936E+00 -4.06288E-04  4.54170E-04  5.05205E-05  2.42691E-03 -3.78068E+00 -2.47309E-05  1.88855E-05  1.84260E-05 -3.97521E-07  1.50000E+01
  2.02945E+01  1.99634E+01  2.00679E+01  2.84811E-01 -1.14164E+00  1.18371E-03  1.02799E+00 -4.11259E-04  4.59124E-04  8.69799E-05  2.41114E-03 -3.81770E+00  1.73336E-07  1.98463E-05  1.95430E-05 -6.49306E-07  1.50000E+01
  2.04156E+01  2.00833E+01  2.00854E+01  3.74958E-01 -1.26107E+00  3.84126E-03  1.16109E+00 -4.31203E-04  4.43072E-04  9.31402E-05  1.82427E-03 -3.61887E+00  4.13316E-05  1.80707E-05  1.94967E-05 -1.63049E-06  1.50000E+01
  2.04137E+01  2.00863E+01  2.00590E+01  3.76382E-01 -1.25825E+00  2.75977E-03  1.16478E+00 -4.41737E-04  4.55191E-04  6.57049E-05  1.93588E-03 -3.68539E+00 -4.93500E-05  1.81872E-05  1.93405E-05 -1.22689E-06  1.50000E+01
  2.04261E+01  2.01035E+01  2.00179E+01  3.87131E-01 -1.26756E+00  1.07297E-03  1.18100E+00 -4.54823E-04  4.66656E-04  1.99389E-05  1.99299E-03 -3.81008E+00  3.56939E-05  1.80571E-05  1.90713E-05 -4.11431E-07  1.50000E+01
  2.04116E+01  2.00886E+01  2.00049E+01  3.77382E-01 -1.25556E+00  4.40724E-04  1.16904E+00 -4.56727E-04  4.71003E-04  5.34579E-06  2.00084E-03 -3.80221E+00  9.37919E-05  1.79532E-05  1.88063E-05 -7.48310E-08  1.50000E+01
  2.06812E+01  2.02805E+01  1.96938E+01  4.60967E-01 -1.46821E+00 -5.28765E-02  6.84431E-01 -2.59898E-04  3.13116E-04 -1.63137E-04  3.42185E-03 -4.62308E+00  2.09475E-04  3.09815E-05  4.27403E-05  1.41311E-05  1.50000E+01
  2.06882E+01  2.02692E+01  1.96668E+01  4.63874E-01 -1.49049E+00 -5.28479E-02  7.38195E-01 -2.66086E-04  3.14991E-04 -1.87687E-04  3.25609E-03 -4.69674E+00  1.51520E-04  3.01402E-05  4.14212E-05  1.20682E-05  1.50000E+01
  2.06266E+01  2.02234E+01  1.97013E+01  4.55747E-01 -1.44687E+00 -3.13856E-02  1.04616E+00 -4.34835E-04  4.26477E-04 -2.60463E-04  3.03553E-03 -4.54713E+00  7.23133E-04  2.61002E-05  3.59344E-05  7.46825E-06  1.50000E+01
  2.03177E+01  1.99653E+01  2.01384E+01  2.88058E-01 -1.16771E+00  2.65710E-03  1.03468E+00 -4.20223E-04  4.57260E-04  1.74095E-04  2.07900E-03 -3.89533E+00 -3.12668E-05  2.16720E-05  2.25038E-05 -1.39205E-06  1.50000E+01
  2.03041E+01  1.99462E+01  2.01508E+01  2.72698E-01 -1.15266E+00  2.35066E-03  1.01982E+00 -3.98418E-04  4.37958E-04  1.84371E-04  2.09929E-03 -3.79206E+00 -6.90698E-05  2.16559E-05  2.24213E-05 -1.32377E-06  1.50000E+01
  2.03218E+01  1.99575E+01  2.01654E+01  2.82699E-01 -1.17264E+00  2.96720E-03  1.04279E+00 -4.07146E-04  4.39861E-04  2.00530E-04  1.99810E-03 -3.84351E+00 -4.43133E-05  2.17422E-05  2.30241E-05 -1.46913E-06  1.50000E+01
  2.06918E+01  2.02994E+01  1.97057E+01  4.56575E-01 -1.46017E+00 -5.99021E-02  3.60092E-01 -1.89064E-04  2.61401E-04 -1.13724E-04  3.04025E-03 -4.59974E+00 -3.86663E-04  3.41250E-05  4.68482E-05  1.83578E-05  1.50000E+01
  2.06505E+01  2.02209E+01  1.96595E+01  4.58317E-01 -1.48120E+00 -3.62187E-02  1.00469E+00 -4.08054E-04  4.03239E-04 -2.82030E-04  2.86669E-03 -4.66205E+00  6.25174E-04  2.59825E-05  3.67065E-05  7.57576E-06  1.50000E+01
  2.06333E+01  2.02122E+01  1.96747E+01  4.54573E-01 -1.46422E+00 -3.19606E-02  1.05843E+00 -4.32775E-04  4.19538E-04 -2.84138E-04  2.81564E-03 -4.60479E+00  6.74584E-04  2.60416E-05  3.64187E-05  6.91068E-06  1.50000E+01
  2.03872E+01  2.00097E+01  2.01976E+01  3.26187E-01 -1.24314E+00  5.32200E-03  1.12121E+00 -4.29094E-04  4.39378E-04  2.27258E-04  1.97985E-03 -3.86661E+00 -6.89846E-05  2.14771E-05  2.47140E-05 -2.59409E-06  1.50000E+01
  2.03996E+01  2.00292E+01  2.01862E+01  3.40310E-01 -1.25443E+00  5.68804E-03  1.13692E+00 -4.33490E-04  4.41108E-04  2.11866E-04  1.89776E-03 -3.82801E+00 -1.08577E-04  2.10192E-05  2.41255E-05 -2.51899E-06  1.50000E+01
  2.03747E+01  1.99896E+01  2.02089E+01  3.11294E-01 -1.23120E+00  4.88708E-03  1.10295E+00 -4.19980E-04  4.33072E-04  2.40194E-04  1.94468E-03 -3.88687E+00 -5.22585E-05  2.20468E-05  2.54355E-05 -2.65245E-06  1.50000E+01
  2.03681E+01  2.00420E+01  1.99660E+01  3.45155E-01 -1.21690E+00 -1.13690E-03  1.11277E+00 -4.51320E-04  4.76852E-04 -4.18382E-05  2.20208E-03 -3.83947E+00 -1.05525E-05  1.82491E-05  1.87139E-05  5.41481E-07  1.50000E+01
  2.06780E+01  2.02494E+01  1.96555E+01  4.64023E-01 -1.49557E+00 -4.63848E-02  8.53538E-01 -3.36514E-04  3.65243E-04 -2.42416E-04  3.15771E-03 -4.71190E+00  4.08507E-04  2.85465E-05  3.96846E-05  9.95702E-06  1.50000E+01
  2.06858E+01  2.02370E+01  1.96294E+01  4.65148E-01 -1.51777E+00 -4.53994E-02  9.18623E-01 -3.44391E-04  3.69624E-04 -2.72554E-04  2.95422E-03 -4.78388E+00  3.25416E-04  2.71940E-05  3.82348E-05  9.08600E-06  1.50000E+01
  2.06680E+01  2.02292E+01  1.96444E+01  4.61806E-01 -1.49901E+00 -4.07486E-02  9.78001E-01 -3.80440E-04  3.88837E-04 -2.79958E-04  2.91207E-03 -4.72209E+00  5.03976E-04  2.65026E-05  3.75052E-05  8.32311E-06  1.50000E+01
  2.06163E+01  2.02030E+01  1.96898E+01  4.50485E-01 -1.44791E+00 -2.80667E-02  1.10164E+00 -4.53401E-04  4.32762E-04 -2.84041E-04  2.75051E-03 -4.55096E+00  6.68833E-04  2.54768E-05  3.53286E-05  6.40461E-06  1.50000E+01
  2.04335E+01  2.00915E+01  2.01249E+01  3.81508E-01 -1.27897E+00  5.76174E-03  1.18617E+00 -4.45012E-04  4.51736E-04  1.37800E-04  2.05254E-03 -3.76426E+00  6.87606E-05  1.97111E-05  2.20315E-05 -2.36620E-06  1.50000E+01
  2.04209E+01  2.00737E+01  2.01372E+01  3.69921E-01 -1.26940E+00  5.67002E-03  1.16574E+00 -4.35555E-04  4.43345E-04  1.51378E-04  1.82047E-03 -3.70067E+00  8.23160E-05  1.95060E-05  2.18747E-05 -2.32534E-06  1.50000E+01
  2.03142E+01  1.99718E+01  2.01107E+01  2.92533E-01 -1.16351E+00  2.23981E-03  1.04223E+00 -4.32371E-04  4.72708E-04  1.44025E-04  2.18300E-03 -3.95403E+00  2.18318E-05  2.13436E-05  2.17051E-05 -1.01658E-06  1.50000E+01
  2.02970E+01  1.99592E+01  2.00960E+01  2.81812E-01 -1.14451E+00  1.66387E-03  1.02596E+00 -4.12593E-04  4.58498E-04  1.22808E-04  2.32396E-03 -3.83135E+00  1.04906E-05  2.05513E-05  2.04602E-05 -7.17188E-07  1.50000E+01
  2.01155E+01  1.97198E+01  2.02248E+01  5.74703E-02 -8.91472E-01  0.00000E+00  5.32824E-01 -1.02792E-04  1.76689E-04  1.14129E-04  1.11710E+01  3.90445E+01 -3.71519E+01  2.90854E-05  2.55613E-05  5.51002E-07  1.50000E+01
  2.07346E+01  2.03025E+01  1.96479E+01  4.62612E-01 -1.51896E+00 -7.40696E-02 -7.21825E-02 -7.37023E-06  5.20490E-05 -1.23586E-05 -2.39164E-03 -2.40696E+00 -1.67974E-02  1.81513E-05  2.46038E-05  9.18496E-06  1.50000E+01
  2.07242E+01  2.02836E+01  1.96365E+01  4.66866E-01 -1.52672E+00 -6.53495E-02  4.23616E-01 -1.39492E-04  2.23587E-04 -1.25585E-04  2.59665E-03 -4.81661E+00 -1.05587E-03  3.46192E-05  4.67217E-05  1.53822E-05  1.50000E+01
  2.06407E+01  2.02002E+01  1.96486E+01  4.53147E-01 -1.48260E+00 -3.20406E-02  1.03712E+00 -4.29689E-04  4.10754E-04 -3.06442E-04  2.60664E-03 -4.66658E+00  6.09420E-04  2.47223E-05  3.56028E-05  6.72065E-06  1.50000E+01
  2.06234E+01  2.01914E+01  1.96636E+01  4.48520E-01 -1.46490E+00 -2.84426E-02  1.10434E+00 -4.50606E-04  4.23968E-04 -3.06944E-04  2.56757E-03 -4.60745E+00  6.31149E-04  2.50467E-05  3.55580E-05  6.15304E-06  1.50000E+01
  2.03226E+01  1.99974E+01  1.99823E+01  3.11393E-01 -1.17157E+00 -5.76620E-04  1.06720E+00 -4.25565E-04  4.63611E-04 -2.18953E-05  2.27861E-03 -3.80893E+00 -7.89868E-05  1.80779E-05  1.79541E-05  2.08960E-07  1.50000E+01
  2.04244E+01  2.00671E+01  2.01631E+01  3.66425E-01 -1.27499E+00  6.36271E-03  1.16428E+00 -4.41457E-04  4.46024E-04  1.81764E-04  1.79265E-03 -3.78979E+00 -8.66763E-05  2.02984E-05  2.32125E-05 -2.51522E-06  1.50000E+01
  2.03395E+01  1.99684E+01  2.01800E+01  2.92438E-01 -1.19242E+00  3.61156E-03  1.05698E+00 -4.12093E-04  4.38615E-04  2.14717E-04  1.90081E-03 -3.86822E+00 -4.55953E-06  2.21610E-05  2.41033E-05 -1.81634E-06  1.50000E+01
  2.03571E+01  1.99791E+01  2.01945E+01  3.01954E-01 -1.21193E+00  4.25191E-03  1.08916E+00 -4.16587E-04  4.36109E-04  2.27805E-04  1.86351E-03 -3.87558E+00 -3.90870E-06  2.19828E-05  2.46961E-05 -2.36270E-06  1.50000E+01
  2.01369E+01  1.97707E+01  2.01800E+01  1.08665E-01 -9.34256E-01 -1.07139E-03  6.76647E-01 -2.31182E-04  3.19100E-04  1.78498E-04  2.34514E-03 -2.94202E+00 -6.16185E-04  3.35076E-05  3.00692E-05  6.15404E-07  1.50000E+01
  2.01182E+01  1.97615E+01  2.01669E+01  9.81535E-02 -9.09528E-01 -1.08406E-03  6.55260E-01 -2.03432E-04  2.97097E-04  1.50744E-04  2.81493E-03 -2.84650E+00 -6.40056E-04  3.56104E-05  3.15161E-05  4.47657E-07  1.50000E+01
  2.06942E+01  2.02237E+01  1.96039E+01  4.65863E-01 -1.54070E+00 -4.36672E-02  9.71498E-01 -3.35710E-04  3.60051E-04 -2.89738E-04  2.77317E-03 -4.85879E+00  2.35335E-04  2.60640E-05  3.74899E-05  8.97572E-06  1.50000E+01
  2.02766E+01  1.99519E+01  2.00258E+01  2.74781E-01 -1.12169E+00  3.00194E-04  1.01752E+00 -3.84109E-04  4.35383E-04  3.20360E-05  2.43018E-03 -3.67375E+00 -1.42513E-05  1.84564E-05  1.77550E-05 -2.29065E-07  1.50000E+01
  2.02779E+01  1.99499E+01  2.00538E+01  2.73345E-01 -1.12310E+00  7.46431E-04  1.00195E+00 -3.90369E-04  4.42067E-04  6.73401E-05  2.47196E-03 -3.70109E+00 -1.54756E-05  1.92389E-05  1.86338E-05 -4.64665E-07  1.50000E+01
  2.04308E+01  2.00963E+01  2.00986E+01  3.83861E-01 -1.27461E+00  4.73082E-03  1.17065E+00 -4.44618E-04  4.53295E-04  1.08600E-04  2.03403E-03 -3.73637E+00  5.39669E-05  1.88704E-05  2.06859E-05 -1.98859E-06  1.50000E+01
  2.04286E+01  2.00999E+01  2.00720E+01  3.85566E-01 -1.27124E+00  3.57716E-03  1.16688E+00 -4.48799E-04  4.59281E-04  7.99561E-05  2.02642E-03 -3.74331E+00  1.44360E-05  1.86081E-05  2.00632E-05 -1.56935E-06  1.50000E+01
  2.03086E+01  1.99378E+01  2.01774E+01  2.66781E-01 -1.15780E+00  2.55454E-03  1.01206E+00 -3.88892E-04  4.24769E-04  2.10573E-04  1.94334E-03 -3.77475E+00 -8.86467E-05  2.23357E-05  2.35975E-05 -1.43886E-06  1.50000E+01
  2.02955E+01  1.99179E+01  2.01893E+01  2.50269E-01 -1.14244E+00  2.09574E-03  9.96516E-01 -3.70009E-04  4.09336E-04  2.19232E-04  1.86229E-03 -3.70591E+00 -1.34626E-04  2.32570E-05  2.45087E-05 -1.39935E-06  1.50000E+01
  2.03136E+01  1.99283E+01  2.02034E+01  2.60103E-01 -1.16359E+00  2.65806E-03  1.02954E+00 -3.81438E-04  4.14015E-04  2.35687E-04  1.80348E-03 -3.76653E+00 -1.09664E-04  2.34741E-05  2.52732E-05 -1.46130E-06  1.50000E+01
  2.06062E+01  2.01823E+01  1.96786E+01  4.43583E-01 -1.44782E+00 -2.51488E-02  1.12667E+00 -4.64791E-04  4.33051E-04 -3.04043E-04  2.51823E-03 -4.55151E+00  6.08483E-04  2.40082E-05  3.37967E-05  5.71554E-06  1.50000E+01
  2.03077E+01  1.99822E+01  2.00253E+01  2.99496E-01 -1.15589E+00  4.39342E-04  1.04216E+00 -4.20852E-04  4.64152E-04  3.27039E-05  2.37187E-03 -3.84498E+00 -5.92652E-05  1.84821E-05  1.81824E-05 -2.67549E-07  1.50000E+01
  2.03072E+01  1.99826E+01  1.99970E+01  2.99711E-01 -1.15530E+00 -2.05318E-04  1.04160E+00 -4.13309E-04  4.55887E-04 -3.39214E-06  2.33555E-03 -3.78468E+00 -6.44628E-05  1.79528E-05  1.76245E-05  4.83683E-08  1.50000E+01
  2.04271E+01  2.01023E+01  2.00451E+01  3.86644E-01 -1.26888E+00  2.34812E-03  1.17509E+00 -4.52828E-04  4.64228E-04  5.04218E-05  2.03885E-03 -3.77469E+00 -9.57403E-06  1.83400E-05  1.95180E-05 -1.04467E-06  1.50000E+01
  2.06760E+01  2.02164E+01  1.96186E+01  4.61738E-01 -1.52038E+00 -3.98005E-02  9.87535E-01 -3.86641E-04  3.91880E-04 -3.09567E-04  2.70088E-03 -4.79152E+00  4.09354E-04  2.53345E-05  3.66244E-05  8.00825E-06  1.50000E+01
  2.06582E+01  2.02085E+01  1.96336E+01  4.57527E-01 -1.50105E+00 -3.58687E-02  1.01329E+00 -4.12205E-04  4.02993E-04 -3.09869E-04  2.65276E-03 -4.72821E+00  5.32022E-04  2.47257E-05  3.60197E-05  7.52060E-06  1.50000E+01
  2.03002E+01  1.99534E+01  2.01237E+01  2.77747E-01 -1.14822E+00  2.05537E-03  1.01471E+00 -4.07515E-04  4.50097E-04  1.55456E-04  2.23837E-03 -3.81693E+00 -1.82389E-05  2.12185E-05  2.15484E-05 -1.13436E-06  1.50000E+01
  2.02829E+01  1.99412E+01  2.01093E+01  2.67120E-01 -1.12857E+00  1.50591E-03  9.94636E-01 -3.92920E-04  4.41243E-04  1.36346E-04  2.30227E-03 -3.72536E+00 -4.45493E-05  2.06775E-05  2.05401E-05 -8.51993E-07  1.50000E+01
  2.04542E+01  2.01335E+01  1.99895E+01  4.05540E-01 -1.28910E+00 -4.02390E-04  1.17350E+00 -4.59177E-04  4.67948E-04 -1.18426E-05  2.03232E-03 -3.91505E+00  8.32722E-06  1.91888E-05  2.04828E-05  2.96157E-07  1.50000E+01
  2.04402E+01  2.01180E+01  1.99762E+01  3.96268E-01 -1.27883E+00 -1.04732E-03  1.18658E+00 -4.63475E-04  4.73801E-04 -2.72945E-05  2.01050E-03 -3.89336E+00  3.11557E-05  1.89941E-05  2.02072E-05  6.35803E-07  1.50000E+01
  2.04401E+01  2.01186E+01  2.00038E+01  3.96593E-01 -1.27846E+00  3.93525E-04  1.18516E+00 -4.57463E-04  4.67712E-04  3.80071E-06  2.00687E-03 -3.86362E+00  1.87932E-05  1.86400E-05  1.97774E-05 -1.13943E-07  1.50000E+01
  2.06846E+01  2.02028E+01  1.95935E+01  4.61324E-01 -1.54249E+00 -3.82368E-02  1.03571E+00 -3.79458E-04  3.82967E-04 -3.28330E-04  2.51891E-03 -4.86390E+00  3.07764E-04  2.36021E-05  3.57277E-05  8.47422E-06  1.50000E+01
  2.04406E+01  2.00786E+01  2.01772E+01  3.74968E-01 -1.29068E+00  7.36708E-03  1.17329E+00 -4.50205E-04  4.50326E-04  1.97032E-04  1.94099E-03 -3.87263E+00 -5.84576E-05  2.08611E-05  2.42763E-05 -2.68279E-06  1.50000E+01
  2.04367E+01  2.00856E+01  2.01511E+01  3.78525E-01 -1.28433E+00  6.63908E-03  1.17050E+00 -4.47365E-04  4.51490E-04  1.67344E-04  2.00316E-03 -3.81515E+00  3.14692E-05  2.03851E-05  2.32767E-05 -2.66137E-06  1.50000E+01
  2.02800E+01  1.99463E+01  2.00816E+01  2.70782E-01 -1.12541E+00  1.15660E-03  1.00163E+00 -3.93344E-04  4.44399E-04  1.02524E-04  2.40999E-03 -3.71971E+00 -2.47524E-05  2.01843E-05  1.97483E-05 -6.48937E-07  1.50000E+01
  2.03318E+01  1.99384E+01  2.02174E+01  2.69791E-01 -1.18457E+00  3.22924E-03  1.05955E+00 -3.89230E-04  4.14109E-04  2.49424E-04  1.76927E-03 -3.81730E+00 -9.19995E-05  2.32455E-05  2.57596E-05 -1.79296E-06  1.50000E+01
  2.03499E+01  1.99484E+01  2.02315E+01  2.79348E-01 -1.20539E+00  3.79700E-03  1.05848E+00 -3.96974E-04  4.15017E-04  2.62812E-04  1.76372E-03 -3.86121E+00 -9.51978E-05  2.31738E-05  2.66401E-05 -2.41184E-06  1.50000E+01
  2.03444E+01  1.99589E+01  2.02060E+01  2.86206E-01 -1.19855E+00  3.76853E-03  1.06936E+00 -4.03524E-04  4.25374E-04  2.39142E-04  1.84385E-03 -3.85481E+00 -4.62669E-05  2.23446E-05  2.49733E-05 -2.11447E-06  1.50000E+01
  2.00996E+01  1.97521E+01  2.01539E+01  8.72527E-02 -8.84645E-01 -9.70785E-04  6.28975E-01 -1.82500E-04  2.76838E-04  1.24927E-04  3.37125E-03 -2.74242E+00 -6.29730E-04  3.61245E-05  3.19195E-05 -1.64445E-07  1.50000E+01
  2.00855E+01  1.97339E+01  2.01651E+01  6.80634E-02 -8.62119E-01 -8.79351E-04  5.68812E-01 -1.59668E-04  2.68776E-04  1.29071E-04  3.21696E-03 -2.65287E+00 -8.75417E-04  4.24062E-05  3.69061E-05 -5.32793E-07  1.50000E+01