 TITLE="3D TRIANGULAR SURFACE DATA"
VARIABLES="X","Y","Z","U","V","W","P", "Fex", "Fey", "Fez","Finx","Finy","Finz","WSSx","WSSy","WSSz","AMForce"
 ZONE T="unstruc"N=        1757 E=        3355 F=FEPOINT  ET=TRIANGLE
  2.03575E+01  1.96702E+01  2.00955E+01 -4.48910E-01  4.17360E-01  6.81766E-02 -9.34911E-01 -3.99933E-05 -3.86081E-04  1.25241E-05 -5.41938E-02  1.68116E+00  1.79994E-02  5.57977E-05 -1.48413E-05 -4.47211E-06  1.50000E+01
  2.03795E+01  1.96658E+01  2.00950E+01 -4.81583E-01  2.68464E-01  7.00373E-02 -6.11592E-01  8.99675E-06 -1.16397E-04 -2.82015E-07 -7.67024E-03  4.89154E-01  4.28291E-03  2.52129E-05 -4.05631E-06 -1.24624E-06  1.50000E+01
  2.03746E+01  1.96663E+01  2.00743E+01 -4.86830E-01  2.57023E-01  5.69757E-02 -6.23129E-01  7.49400E-06 -2.18224E-04  4.21621E-07 -3.08725E-02  6.93980E-01  1.49875E-02  3.82954E-05 -5.96193E-06 -1.59444E-06  1.50000E+01
  2.03549E+01  1.96729E+01  2.01266E+01 -4.16134E-01  5.22918E-01  8.39212E-02 -9.19027E-01 -2.65813E-05 -2.51705E-04  1.16508E-05 -3.29953E-02  1.81955E+00  1.92252E-02  4.75847E-05 -1.59415E-05 -6.46651E-06  1.50000E+01
  2.03757E+01  1.96669E+01  2.01159E+01 -4.67251E-01  3.47757E-01  8.26575E-02 -6.22583E-01  7.74384E-06 -1.59977E-04  1.73433E-06 -3.29138E-02  9.58761E-01  4.30659E-03  3.78685E-05 -8.08690E-06 -2.81602E-06  1.50000E+01
  2.03952E+01  1.96638E+01  2.01061E+01 -4.95079E-01  1.99183E-01  7.75450E-02 -6.24877E-01  1.92370E-05 -1.42499E-04 -2.48513E-06 -1.79518E-02  4.45248E-01  9.26645E-03  3.28696E-05 -3.67022E-06 -1.21537E-06  1.50000E+01
  2.03947E+01  1.96640E+01  2.00828E+01 -5.02165E-01  1.51534E-01  6.05506E-02 -6.37352E-01  2.18387E-05 -1.55489E-04 -3.14652E-06 -1.50499E-02  3.24225E-01  1.08590E-03  3.28048E-05 -2.72440E-06 -1.07539E-06  1.50000E+01
  2.03719E+01  1.96665E+01  2.00481E+01 -4.92074E-01  2.34826E-01  3.71614E-02 -7.48546E-01  4.63203E-06 -2.85229E-04  2.60402E-07 -2.98282E-02  6.82397E-01  6.39965E-03  4.23240E-05 -5.97340E-06 -1.23723E-06  1.50000E+01
  2.03528E+01  1.96703E+01  2.00647E+01 -4.57293E-01  3.87645E-01  4.69088E-02 -1.16428E+00 -5.62695E-05 -4.64261E-04  9.75002E-06 -3.59215E-02  1.32994E+00  5.84343E-03  4.90399E-05 -1.17360E-05 -3.04059E-06  1.50000E+01
  2.03507E+01  1.96701E+01  2.00364E+01 -4.63719E-01  3.65582E-01  2.68184E-02 -1.48378E+00 -4.31485E-05 -4.26926E-04  5.20735E-06 -3.39185E-02  1.17370E+00  3.82530E-03  4.62579E-05 -1.02480E-05 -1.48345E-06  1.50000E+01
  2.03746E+01  1.96683E+01  2.01419E+01 -4.44274E-01  4.38612E-01  9.81270E-02 -8.73398E-01  1.61609E-06 -1.64213E-04  4.10306E-06 -3.39809E-02  1.32781E+00  1.51998E-02  4.02187E-05 -1.08824E-05 -4.60628E-06  1.50000E+01
  2.03945E+01  1.96639E+01  2.01301E+01 -4.84583E-01  2.70462E-01  9.38301E-02 -6.34977E-01  1.76940E-05 -1.51455E-04 -1.69750E-06 -3.06702E-02  7.23294E-01  9.75589E-03  3.78565E-05 -5.88596E-06 -2.23684E-06  1.50000E+01
  2.03133E+01  1.96862E+01  2.00964E+01 -3.28399E-01  7.27272E-01  4.89775E-02 -7.37952E-01 -7.21019E-05 -2.95036E-04  2.25670E-05 -1.31117E-02  2.60318E+00  8.09225E-03  5.02561E-05 -2.47190E-05 -7.81777E-06  1.50000E+01
  2.03118E+01  1.96840E+01  2.00675E+01 -3.49582E-01  6.83331E-01  3.67848E-02 -9.04342E-01 -1.10108E-04 -4.04065E-04  2.26847E-05 -1.87747E-02  2.40132E+00  6.67575E-03  4.94772E-05 -2.21796E-05 -5.53956E-06  1.50000E+01
  2.02934E+01  1.96947E+01  2.00821E+01 -2.76847E-01  8.23821E-01  3.33954E-02 -9.44084E-01 -1.23612E-04 -3.44046E-04  3.13314E-05 -2.27018E-03  2.84361E+00  3.99213E-03  4.69885E-05 -2.69744E-05 -6.63196E-06  1.50000E+01
  2.03344E+01  1.96787E+01  2.01109E+01 -3.77589E-01  6.20906E-01  6.66220E-02 -8.21286E-01 -5.65208E-05 -3.25076E-04  1.97370E-05 -2.77558E-02  2.34826E+00  1.43763E-02  5.31038E-05 -2.15784E-05 -7.70929E-06  1.50000E+01
  2.03150E+01  1.96895E+01  2.01250E+01 -2.99193E-01  7.84925E-01  5.68041E-02 -8.29838E-01 -6.79940E-05 -2.53300E-04  2.84048E-05 -5.59189E-03  2.74449E+00  7.47642E-03  4.80032E-05 -2.64604E-05 -8.78077E-06  1.50000E+01
  2.03351E+01  1.96820E+01  2.01397E+01 -3.43622E-01  6.99872E-01  7.53478E-02 -8.46706E-01 -3.53160E-05 -2.15849E-04  1.73825E-05 -1.72567E-02  2.40807E+00  1.34028E-02  4.75102E-05 -2.29124E-05 -9.73909E-06  1.50000E+01
  2.03330E+01  1.96767E+01  2.00813E+01 -4.01397E-01  5.59946E-01  5.20999E-02 -1.00096E+00 -8.65745E-05 -4.52591E-04  2.07255E-05 -3.16526E-02  2.11295E+00  1.07365E-02  5.33110E-05 -1.89634E-05 -5.82115E-06  1.50000E+01
  2.03311E+01  1.96758E+01  2.00521E+01 -4.14804E-01  5.24708E-01  3.43670E-02 -1.21323E+00 -9.93088E-05 -5.07667E-04  1.52649E-05 -3.19471E-02  1.80710E+00  6.12349E-03  4.96767E-05 -1.63158E-05 -3.35984E-06  1.50000E+01
  2.04139E+01  1.96627E+01  2.00937E+01 -5.11138E-01  7.30147E-02  6.55200E-02 -5.56448E-01  3.23907E-05 -1.48951E-04 -6.39182E-06 -1.35130E-02  1.41077E-01  3.02779E-03  3.67021E-05 -1.38022E-06 -1.51975E-06  1.50000E+01
  2.04132E+01  1.96634E+01  2.00692E+01 -5.15256E-01  3.61863E-02  4.81128E-02 -5.67134E-01  3.57631E-05 -1.58395E-04 -6.05043E-06 -1.15166E-02  4.13610E-02  2.57284E-04  3.74655E-05 -6.54676E-07 -1.52269E-06  1.50000E+01
  2.04142E+01  1.96619E+01  2.01181E+01 -5.05802E-01  1.25899E-01  8.34148E-02 -5.65717E-01  3.04779E-05 -1.50785E-04 -6.01015E-06 -1.79297E-02  2.94473E-01  6.62828E-03  3.88644E-05 -2.63032E-06 -1.26210E-06  1.50000E+01
  2.03927E+01  1.96644E+01  2.00586E+01 -5.08059E-01  1.23841E-01  4.40338E-02 -6.69828E-01  2.66789E-05 -1.95393E-04 -3.16803E-06 -2.20150E-02  3.00841E-01  4.91812E-03  3.80546E-05 -2.66648E-06 -1.07603E-06  1.50000E+01
  2.04122E+01  1.96640E+01  2.00441E+01 -5.18639E-01  1.25955E-02  3.12571E-02 -5.84439E-01  3.96558E-05 -1.71544E-04 -4.55217E-06 -1.26175E-02 -2.52749E-02  1.10541E-03  3.94806E-05 -2.07949E-07 -1.16410E-06  1.50000E+01
  2.03299E+01  1.96754E+01  2.00237E+01 -4.22071E-01  5.05434E-01  1.56678E-02 -1.29162E+00 -8.28471E-05 -4.57752E-04  6.58109E-06 -3.22800E-02  1.66736E+00  2.53641E-03  4.78055E-05 -1.49691E-05 -1.40673E-06  1.50000E+01
  2.03706E+01  1.96666E+01  2.00211E+01 -4.95308E-01  2.20087E-01  1.65998E-02 -8.42163E-01  8.41678E-06 -2.87755E-04 -6.09403E-08 -2.91992E-02  6.42154E-01  2.23833E-03  4.33203E-05 -5.69257E-06 -5.97308E-07  1.50000E+01
  2.03497E+01  1.96701E+01  2.00087E+01 -4.66759E-01  3.55721E-01  6.37536E-03 -1.81136E+00 -2.44924E-05 -3.52224E-04  9.89039E-07 -3.43565E-02  1.11368E+00  5.85729E-04  4.54903E-05 -9.75616E-06 -4.51015E-07  1.50000E+01
  2.03171E+01  1.96938E+01  2.01528E+01 -2.64306E-01  8.48690E-01  5.96261E-02 -9.41769E-01 -5.41403E-05 -2.02075E-04  2.94406E-05  1.76712E-03  2.85361E+00  5.35952E-03  4.44992E-05 -2.78615E-05 -8.54821E-06  1.50000E+01
  2.03367E+01  1.96861E+01  2.01671E+01 -3.05072E-01  7.79551E-01  7.83285E-02 -9.61379E-01 -2.96541E-05 -1.75080E-04  1.93861E-05 -7.85774E-03  2.56660E+00  1.06441E-02  4.47746E-05 -2.51357E-05 -9.73108E-06  1.50000E+01
  2.07472E+01  1.96376E+01  1.97105E+01 -5.25350E-01 -7.22291E-02 -5.58175E-02 -1.44519E-01  4.34855E-05 -1.29797E-04  4.00050E-05 -1.72125E-03 -2.35357E-01  3.31425E-03  4.46280E-05 -1.86402E-06 -4.06218E-06  1.50000E+01
  2.07260E+01  1.96417E+01  1.97225E+01 -5.26388E-01 -8.49393E-02 -5.65279E-02 -1.51067E-01  4.53586E-05 -1.20287E-04  3.54558E-05 -1.48712E-03 -2.76170E-01  3.54730E-03  4.46478E-05 -9.97069E-07 -3.50555E-06  1.50000E+01
  2.07462E+01  1.96459E+01  1.97351E+01 -5.29861E-01 -9.27498E-02 -4.69296E-02 -1.31592E-01  4.50642E-05 -1.04142E-04  2.94543E-05 -1.48550E-03 -2.97362E-01  2.63640E-03  4.47129E-05 -1.40631E-06 -4.49473E-06  1.50000E+01
  2.07250E+01  1.96496E+01  1.97472E+01 -5.30648E-01 -1.04394E-01 -4.75245E-02 -1.44717E-01  4.60022E-05 -1.01720E-04  2.76228E-05 -1.32421E-03 -3.34431E-01  2.75354E-03  4.42852E-05 -6.20484E-07 -4.12190E-06  1.50000E+01
  2.07453E+01  1.96539E+01  1.97598E+01 -5.33850E-01 -1.10508E-01 -3.91513E-02 -7.20753E-02  4.58422E-05 -7.25456E-05  1.71803E-05 -1.33324E-03 -3.51450E-01  2.16237E-03  4.42378E-05 -9.68893E-07 -4.99998E-06  1.50000E+01
  2.08108E+01  1.96229E+01  1.96756E+01 -5.18693E-01 -2.47827E-02 -5.48176E-02 -1.46271E-01  4.28133E-05 -1.14400E-04  3.64799E-05 -2.37273E-03 -8.42558E-02  2.86312E-03  4.78578E-05 -4.51453E-06 -5.85346E-06  1.50000E+01
  2.07896E+01  1.96281E+01  1.96871E+01 -5.21610E-01 -4.20809E-02 -5.49525E-02 -2.26485E-01  4.09511E-05 -1.48816E-04  4.90264E-05 -2.17109E-03 -1.39155E-01  2.94833E-03  4.60441E-05 -3.60613E-06 -5.17351E-06  1.50000E+01
  2.08098E+01  1.96322E+01  1.96999E+01 -5.24441E-01 -4.98875E-02 -4.63173E-02 -1.51844E-01  4.29951E-05 -9.57938E-05  2.85382E-05 -1.92920E-03 -1.62104E-01  2.54402E-03  4.61664E-05 -4.00959E-06 -6.22267E-06  1.50000E+01
  2.04144E+01  1.96613E+01  2.01430E+01 -4.97578E-01  1.95053E-01  1.01304E-01 -5.89912E-01  2.70044E-05 -1.60120E-04 -5.41901E-06 -2.61155E-02  5.13762E-01  8.97722E-03  4.15707E-05 -4.43469E-06 -1.67947E-06  1.50000E+01
  2.08089E+01  1.96413E+01  1.97242E+01 -5.29430E-01 -7.22070E-02 -3.86066E-02 -1.22845E-01  4.55302E-05 -6.63610E-05  1.61549E-05 -1.62377E-03 -2.31673E-01  2.34025E-03  4.69814E-05 -3.67802E-06 -6.83874E-06  1.50000E+01
  2.08301E+01  1.96363E+01  1.97126E+01 -5.26845E-01 -5.69817E-02 -3.91117E-02 -1.00374E-01  4.65176E-05 -5.98927E-05  1.36580E-05 -1.68204E-03 -1.83908E-01  2.45791E-03  4.84147E-05 -4.57313E-06 -7.49334E-06  1.50000E+01
  2.04323E+01  1.96647E+01  2.00302E+01 -5.22976E-01 -7.13703E-02  1.97987E-02 -4.55316E-01  4.57903E-05 -1.22255E-04 -3.47532E-06 -5.32905E-03 -2.72501E-01 -3.76612E-04  3.99298E-05  1.72973E-06 -1.10076E-06  1.50000E+01
  2.04116E+01  1.96643E+01  2.00184E+01 -5.20409E-01 -1.71444E-04  1.38587E-02 -6.01225E-01  4.22441E-05 -1.79111E-04 -2.02782E-06 -1.19496E-02 -6.60824E-02  7.40589E-04  4.09035E-05  4.48135E-08 -5.53030E-07  1.50000E+01
  2.03550E+01  1.96757E+01  2.01543E+01 -3.82079E-01  6.16089E-01  9.33537E-02 -1.12103E+00 -2.49307E-05 -2.05378E-04  1.39149E-05 -2.52153E-02  2.00334E+00  1.74141E-02  4.42131E-05 -1.83315E-05 -8.64275E-06  1.50000E+01
  2.03565E+01  1.96792E+01  2.01811E+01 -3.43332E-01  7.07369E-01  9.73479E-02 -9.01324E-01 -3.22121E-05 -2.00145E-04  1.96135E-05 -1.82094E-02  2.26189E+00  1.59830E-02  4.34837E-05 -2.15852E-05 -9.60711E-06  1.50000E+01
  2.03751E+01  1.96702E+01  2.01682E+01 -4.14743E-01  5.33738E-01  1.09612E-01 -1.14593E+00 -1.67005E-05 -1.91430E-04  1.06330E-05 -3.23294E-02  1.64639E+00  1.94631E-02  4.02995E-05 -1.38470E-05 -6.99702E-06  1.50000E+01
  2.03293E+01  1.96753E+01  1.99958E+01 -4.23618E-01  5.02338E-01 -3.39727E-03 -1.36203E+00 -7.59463E-05 -4.32681E-04 -7.08542E-07 -3.25502E-02  1.61900E+00 -1.04663E-03  4.69703E-05 -1.45829E-05  2.03366E-07  1.50000E+01
  2.03700E+01  1.96667E+01  1.99941E+01 -4.95916E-01  2.18594E-01 -4.02032E-03 -9.02253E-01  9.26494E-06 -2.86969E-04  3.48031E-08 -2.94811E-02  6.33128E-01 -6.68590E-04  4.33691E-05 -5.64052E-06  5.00724E-08  1.50000E+01
  2.03494E+01  1.96702E+01  1.99813E+01 -4.65502E-01  3.61938E-01 -1.40023E-02 -1.78672E+00 -2.26458E-05 -3.36316E-04 -1.69927E-06 -3.46509E-02  1.11819E+00 -2.71183E-03  4.48721E-05 -9.77970E-06  5.69863E-07  1.50000E+01
  2.07646E+01  1.96655E+01  1.97972E+01 -5.39910E-01 -1.30542E-01 -2.59051E-02 -7.24229E-02  4.55610E-05 -6.19524E-05  1.28230E-05 -1.18398E-03 -4.12765E-01  1.69146E-03  4.40070E-05 -3.67149E-07 -4.80367E-06  1.50000E+01
  2.07858E+01  1.96622E+01  1.97850E+01 -5.38966E-01 -1.20690E-01 -2.55914E-02 -6.68126E-02  4.60976E-05 -5.19042E-05  9.68539E-06 -1.21221E-03 -3.82682E-01  1.85949E-03  4.51047E-05 -1.29547E-06 -5.65442E-06  1.50000E+01
  2.07655E+01  1.96581E+01  1.97724E+01 -5.36609E-01 -1.15740E-01 -3.19049E-02 -5.50746E-02  4.60677E-05 -5.52734E-05  1.09222E-05 -1.28963E-03 -3.67023E-01  1.90462E-03  4.46192E-05 -1.19602E-06 -5.52723E-06  1.50000E+01
  2.04339E+01  1.96618E+01  2.01054E+01 -5.16154E-01  9.81119E-03  6.88204E-02 -4.79528E-01  3.97380E-05 -1.34853E-04 -9.67270E-06 -9.42708E-03 -3.24851E-02  1.09426E-03  3.89605E-05  3.38812E-08 -2.23661E-06  1.50000E+01
  2.01130E+01  1.99111E+01  2.01915E+01  5.31734E-03  1.24750E+00 -4.59428E-04 -4.33451E-01  5.43186E-05 -5.17123E-05 -9.38909E-06  2.09151E-03  3.91635E+00  4.84619E-05  4.78074E-05 -5.70914E-05 -4.15033E-06  1.50000E+01
  2.01021E+01  1.99321E+01  2.02020E+01  3.08154E-03  1.25202E+00 -1.68980E-04 -5.14119E-01  1.50250E-04  1.23135E-05 -7.75102E-05  1.54447E-03  3.93071E+00  3.35897E-04  5.87654E-05 -6.82346E-05 -2.36559E-06  1.50000E+01
  2.01206E+01  1.99224E+01  2.02149E+01  3.12443E-03  1.25113E+00 -2.16938E-04 -3.33151E-01  1.19814E-04 -2.56937E-05 -5.29056E-05  1.88541E-03  3.93832E+00  3.39417E-04  6.03632E-05 -7.38810E-05 -4.78995E-06  1.50000E+01
  2.08282E+01  1.96543E+01  1.97612E+01 -5.35861E-01 -9.78184E-02 -2.58194E-02 -2.47474E-02  4.86963E-05  1.86165E-05 -1.54277E-05 -1.25913E-03 -3.12217E-01  2.29887E-03  4.82451E-05 -3.32745E-06 -7.41642E-06  1.50000E+01
  2.08494E+01  1.96497E+01  1.97496E+01 -5.33633E-01 -8.45331E-02 -2.67097E-02  7.65821E-03  2.47505E-05  9.31417E-06 -8.04111E-06 -3.71316E-04 -1.28303E-01  5.20647E-03  2.47223E-05 -2.03502E-06 -3.91738E-06  1.50000E+01
  2.08292E+01  1.96455E+01  1.97369E+01 -5.31655E-01 -7.85310E-02 -3.21176E-02 -7.58102E-02  4.83982E-05 -1.55287E-05 -3.27987E-06 -1.43801E-03 -2.51572E-01  2.37381E-03  4.88704E-05 -4.05070E-06 -7.64036E-06  1.50000E+01
  2.07665E+01  1.96501E+01  1.97478E+01 -5.32864E-01 -9.89115E-02 -3.87418E-02 -1.01682E-01  4.57115E-05 -7.92855E-05  1.97298E-05 -1.43560E-03 -3.15092E-01  2.17158E-03  4.51064E-05 -1.91203E-06 -5.77473E-06  1.50000E+01
  2.07867E+01  1.96543E+01  1.97604E+01 -5.35431E-01 -1.04481E-01 -3.16482E-02 -6.38110E-02  4.64377E-05 -5.12760E-05  9.46375E-06 -1.34884E-03 -3.32209E-01  2.03011E-03  4.60969E-05 -2.25729E-06 -6.64469E-06  1.50000E+01
  2.03292E+01  1.96757E+01  1.99682E+01 -4.19129E-01  5.16252E-01 -2.20226E-02 -1.34107E+00 -7.32550E-05 -4.10684E-04 -7.41130E-06 -3.18563E-02  1.64425E+00 -4.36897E-03  4.63570E-05 -1.48575E-05  1.85897E-06  1.50000E+01
  2.03105E+01  1.96828E+01  2.00388E+01 -3.62656E-01  6.55793E-01  2.17814E-02 -1.04192E+00 -1.41134E-04 -4.93239E-04  1.67535E-05 -2.17443E-02  2.22792E+00  3.80398E-03  4.87154E-05 -2.05110E-05 -2.87573E-06  1.50000E+01
  2.03098E+01  1.96823E+01  2.00104E+01 -3.68449E-01  6.43968E-01  5.51814E-03 -1.06291E+00 -1.58187E-04 -5.41268E-04  5.48163E-06 -2.30411E-02  2.13379E+00  7.92983E-04  4.80725E-05 -1.96937E-05 -7.50365E-07  1.50000E+01
  2.07906E+01  1.96190E+01  1.96628E+01 -5.15527E-01 -1.52541E-02 -6.47119E-02 -1.98000E-01  3.99106E-05 -1.54977E-04  5.22705E-05 -2.72319E-03 -5.70588E-02  3.54235E-03  4.70634E-05 -4.03205E-06 -4.68400E-06  1.50000E+01
  2.07241E+01  1.96572E+01  1.97720E+01 -5.34438E-01 -1.21012E-01 -3.96804E-02 -5.60729E-02  4.58489E-05 -6.78651E-05  1.55438E-05 -1.22854E-03 -3.84431E-01  2.18673E-03  4.38802E-05 -1.33761E-07 -4.39897E-06  1.50000E+01
  2.07444E+01  1.96614E+01  1.97846E+01 -5.37384E-01 -1.26000E-01 -3.23191E-02 -5.08552E-02  4.58781E-05 -5.38128E-05  1.06880E-05 -1.22882E-03 -3.98782E-01  1.82132E-03  4.43815E-05 -3.28777E-07 -4.87568E-06  1.50000E+01
  2.02919E+01  1.96925E+01  2.00535E+01 -2.94437E-01  7.93205E-01  2.33835E-02 -1.16164E+00 -1.96239E-04 -4.98463E-04  3.16926E-05 -6.78301E-03  2.70538E+00  3.32600E-03  4.70205E-05 -2.52132E-05 -4.24617E-06  1.50000E+01
  2.02731E+01  1.97023E+01  2.00396E+01 -2.39461E-01  8.88521E-01  1.29668E-02 -1.04412E+00 -2.36792E-04 -5.04510E-04  2.85192E-05  2.87114E-03  2.97398E+00  1.21228E-03  4.52558E-05 -2.80255E-05 -3.40478E-06  1.50000E+01
  2.02744E+01  1.97042E+01  2.00679E+01 -2.26387E-01  9.08026E-01  2.08667E-02 -9.24378E-01 -1.55996E-04 -3.56673E-04  3.31173E-05  5.53196E-03  3.06480E+00  1.37312E-03  4.45469E-05 -2.89428E-05 -5.46144E-06  1.50000E+01
  2.04334E+01  1.96630E+01  2.00806E+01 -5.18876E-01 -2.90143E-02  5.16613E-02 -4.64425E-01  4.12948E-05 -1.27480E-04 -8.38769E-06 -6.73004E-03 -1.42851E-01 -3.89170E-04  3.80923E-05  8.42211E-07 -2.32695E-06  1.50000E+01
  2.04329E+01  1.96640E+01  2.00556E+01 -5.21164E-01 -5.55968E-02  3.54082E-02 -4.56673E-01  4.35401E-05 -1.23843E-04 -6.26019E-06 -5.37153E-03 -2.22298E-01 -1.11618E-03  3.87900E-05  1.37897E-06 -1.81578E-06  1.50000E+01
  2.04526E+01  1.96662E+01  2.00168E+01 -5.24777E-01 -1.29060E-01  1.02983E-02 -3.32993E-01  4.69434E-05 -7.35334E-05 -1.44119E-06 -1.25506E-03 -4.37013E-01 -5.08122E-04  4.04523E-05  3.09056E-06 -5.79870E-07  1.50000E+01
  2.04320E+01  1.96650E+01  2.00046E+01 -5.23907E-01 -7.71310E-02  4.18612E-03 -4.55500E-01  4.71012E-05 -1.23313E-04 -4.98051E-07 -5.07014E-03 -2.92969E-01  2.85895E-04  4.07532E-05  1.87649E-06 -1.63867E-07  1.50000E+01
  2.07877E+01  1.96459E+01  1.97359E+01 -5.31414E-01 -8.61674E-02 -3.85266E-02 -1.19561E-01  4.50665E-05 -8.03211E-05  2.09657E-05 -1.53371E-03 -2.75318E-01  2.23449E-03  4.59692E-05 -2.77246E-06 -6.25056E-06  1.50000E+01
  2.07886E+01  1.96372E+01  1.97115E+01 -5.26845E-01 -6.55037E-02 -4.62685E-02 -1.41690E-01  4.34197E-05 -1.13457E-04  3.42526E-05 -1.79694E-03 -2.11352E-01  2.52799E-03  4.59843E-05 -3.28958E-06 -5.93611E-06  1.50000E+01
  2.07048E+01  1.96453E+01  1.97346E+01 -5.27004E-01 -9.60194E-02 -5.74129E-02 -1.63982E-01  4.63586E-05 -1.28980E-04  3.74563E-05 -1.24995E-03 -3.12070E-01  3.80115E-03  4.39499E-05 -1.40004E-07 -2.84828E-06  1.50000E+01
  2.02977E+01  1.97024E+01  2.01384E+01 -2.22981E-01  9.13050E-01  4.26994E-02 -8.87834E-01 -8.53380E-05 -2.36574E-04  4.00223E-05  9.01936E-03  3.08188E+00  1.34878E-03  4.37290E-05 -3.01020E-05 -7.47499E-06  1.50000E+01
  2.02820E+01  1.97171E+01  2.01514E+01 -1.56820E-01  1.00839E+00  2.81211E-02 -8.78304E-01 -8.74312E-05 -2.03895E-04  4.77418E-05  1.61804E-02  3.34834E+00 -2.81753E-03  4.05639E-05 -3.26455E-05 -5.99011E-06  1.50000E+01
  2.03008E+01  1.97078E+01  2.01657E+01 -1.90389E-01  9.62976E-01  4.14919E-02 -8.66754E-01 -6.64771E-05 -1.88409E-04  4.08285E-05  1.38639E-02  3.19267E+00 -1.11687E-03  4.21435E-05 -3.17984E-05 -6.67924E-06  1.50000E+01
  2.08079E+01  1.96501E+01  1.97485E+01 -5.33797E-01 -9.21145E-02 -3.16686E-02 -8.67099E-02  4.69168E-05 -3.06731E-05  2.40328E-06 -1.40221E-03 -2.93905E-01  2.19887E-03  4.70786E-05 -3.14609E-06 -7.12323E-06  1.50000E+01
  2.07270E+01  1.96334E+01  1.96978E+01 -5.21559E-01 -6.17834E-02 -6.69736E-02 -1.82501E-01  4.35696E-05 -1.46595E-04  4.57965E-05 -1.77126E-03 -2.07368E-01  4.59921E-03  4.46617E-05 -1.56480E-06 -3.42132E-06  1.50000E+01
  2.07058E+01  1.96374E+01  1.97098E+01 -5.22452E-01 -7.33847E-02 -6.81081E-02 -1.88460E-01  4.49556E-05 -1.38425E-04  4.23282E-05 -1.45407E-03 -2.45416E-01  4.97499E-03  4.40776E-05 -5.17188E-07 -2.22462E-06  1.50000E+01
  2.03766E+01  1.96729E+01  2.01945E+01 -3.77878E-01  6.33583E-01  1.15554E-01 -9.79298E-01 -2.17692E-05 -1.83379E-04  1.45054E-05 -2.77719E-02  1.98082E+00  2.07930E-02  4.17825E-05 -1.79545E-05 -8.96283E-06  1.50000E+01
  2.03954E+01  1.96654E+01  2.01814E+01 -4.41665E-01  4.53331E-01  1.23631E-01 -6.17332E-01  2.85995E-06 -1.55187E-04  1.86363E-06 -3.67117E-02  1.35973E+00  2.09199E-02  3.92238E-05 -1.09429E-05 -6.69542E-06  1.50000E+01
  2.03589E+01  1.96835E+01  2.02074E+01 -2.99009E-01  7.98125E-01  9.52885E-02 -7.80078E-01 -2.93753E-05 -1.69963E-04  2.37367E-05 -7.93073E-03  2.55575E+00  1.24059E-02  4.41657E-05 -2.57884E-05 -9.52533E-06  1.50000E+01
  2.03698E+01  1.96667E+01  1.99672E+01 -4.93393E-01  2.33207E-01 -2.44502E-02 -1.14731E+00  6.95248E-06 -2.84481E-04 -1.41137E-07 -3.00566E-02  6.77586E-01 -3.11629E-03  4.30845E-05 -5.96464E-06  6.66406E-07  1.50000E+01
  2.07684E+01  1.96331E+01  1.96987E+01 -5.23793E-01 -5.79220E-02 -5.52911E-02 -2.07905E-01  4.16270E-05 -1.61274E-04  5.24687E-05 -1.95272E-03 -1.89611E-01  3.09913E-03  4.53395E-05 -2.78589E-06 -4.75527E-06  1.50000E+01
  2.07694E+01  1.96241E+01  1.96743E+01 -5.18220E-01 -3.25955E-02 -6.53232E-02 -2.52875E-01  3.93662E-05 -1.86893E-04  6.35492E-05 -2.41237E-03 -1.12727E-01  3.84113E-03  4.58199E-05 -3.07181E-06 -3.84019E-06  1.50000E+01
  2.07482E+01  1.96290E+01  1.96860E+01 -5.20189E-01 -4.81505E-02 -6.60582E-02 -2.50448E-01  4.11774E-05 -1.71985E-04  5.68243E-05 -2.09573E-03 -1.63007E-01  4.20937E-03  4.49808E-05 -2.23024E-06 -3.39844E-06  1.50000E+01
  2.06846E+01  1.96410E+01  1.97220E+01 -5.22978E-01 -8.28931E-02 -6.94737E-02 -1.74925E-01  4.67935E-05 -1.38609E-04  4.14182E-05 -1.15112E-03 -2.77090E-01  5.33343E-03  4.40857E-05  2.53708E-07 -1.65589E-06  1.50000E+01
  2.04544E+01  1.96614E+01  2.01175E+01 -5.18725E-01 -3.77135E-02  7.04646E-02 -4.18563E-01  4.43422E-05 -1.17068E-04 -1.18747E-05 -5.46223E-03 -1.68748E-01 -1.35376E-03  4.05068E-05  1.24552E-06 -2.59822E-06  1.50000E+01
  2.04344E+01  1.96605E+01  2.01303E+01 -5.12363E-01  6.23089E-02  8.68542E-02 -5.24629E-01  3.89069E-05 -1.48079E-04 -9.92427E-06 -1.38874E-02  1.19302E-01  3.24725E-03  4.21007E-05 -1.23146E-06 -1.45028E-06  1.50000E+01
  2.02953E+01  1.96980E+01  2.01105E+01 -2.52531E-01  8.65100E-01  4.00352E-02 -8.07735E-01 -9.03320E-05 -2.64182E-04  3.35433E-05  3.19246E-03  2.97288E+00  3.28061E-03  4.55586E-05 -2.84902E-05 -7.49774E-06  1.50000E+01
  2.02763E+01  1.97074E+01  2.00961E+01 -2.07285E-01  9.36389E-01  2.62935E-02 -8.92507E-01 -1.13581E-04 -2.72036E-04  3.65608E-05  9.19108E-03  3.16501E+00  6.43178E-04  4.31939E-05 -2.98709E-05 -6.16907E-06  1.50000E+01
  2.01100E+01  1.99440E+01  2.02248E+01 -7.19563E-06  1.25599E+00  0.00000E+00 -2.96667E-02  1.30739E-04  4.12927E-05 -7.65647E-05  3.03390E+00 -3.94713E+01 -3.76917E+01  3.59452E-05 -4.05082E-05  5.51392E-07  1.50000E+01
  2.08513E+01  1.96311E+01  1.97012E+01 -5.23611E-01 -4.04856E-02 -4.02062E-02 -9.19253E-02  2.29827E-05 -3.13395E-05  7.45938E-06  1.15256E-04 -5.74203E-02  5.84974E-03  2.41742E-05 -2.53951E-06 -3.84343E-06  1.50000E+01
  2.08311E+01  1.96269E+01  1.96884E+01 -5.21327E-01 -3.29654E-02 -4.67351E-02 -1.32224E-01  4.52926E-05 -7.93569E-05  2.21038E-05 -2.02925E-03 -1.08750E-01  2.60677E-03  4.85758E-05 -4.94048E-06 -6.98720E-06  1.50000E+01
  2.07068E+01  1.96293E+01  1.96851E+01 -5.17256E-01 -4.54394E-02 -8.07482E-02 -3.04661E-01  4.27353E-05 -1.76263E-04  5.64759E-05 -1.88345E-03 -1.63444E-01  6.35366E-03  4.41599E-05 -9.58271E-07 -1.63691E-06  1.50000E+01
  2.06856E+01  1.96333E+01  1.96971E+01 -5.18112E-01 -5.46127E-02 -8.25473E-02 -2.19202E-01  4.54827E-05 -1.64312E-04  5.04328E-05 -1.53987E-03 -1.94616E-01  6.78419E-03  4.46119E-05 -3.06497E-07 -1.41617E-06  1.50000E+01
  2.03095E+01  1.96825E+01  1.99825E+01 -3.67120E-01  6.48098E-01 -1.08717E-02 -1.09624E+00 -1.49850E-04 -5.12883E-04 -7.14307E-06 -2.27720E-02  2.11112E+00 -2.14150E-03  4.71678E-05 -1.94629E-05  1.42723E-06  1.50000E+01
  2.04349E+01  1.96591E+01  2.01555E+01 -5.06092E-01  1.29638E-01  1.05583E-01 -5.66538E-01  3.35223E-05 -1.68553E-04 -1.05076E-05 -2.04986E-02  3.23159E-01  6.05979E-03  4.32747E-05 -2.84421E-06 -1.70821E-06  1.50000E+01
  2.03199E+01  1.96991E+01  2.01799E+01 -2.26230E-01  9.12442E-01  5.76826E-02 -9.30397E-01 -4.79737E-05 -1.73004E-04  3.34201E-05  8.82156E-03  2.99995E+00  2.09220E-03  4.25964E-05 -2.98397E-05 -7.38018E-06  1.50000E+01
  2.03392E+01  1.96911E+01  2.01938E+01 -2.62911E-01  8.57247E-01  7.59352E-02 -8.36843E-01 -3.46059E-05 -1.63445E-04  2.70921E-05  1.32932E-03  2.78158E+00  6.72382E-03  4.31172E-05 -2.77106E-05 -8.26905E-06  1.50000E+01
  2.01240E+01  1.98905E+01  2.01806E+01  6.32092E-03  1.24213E+00 -7.67519E-04 -3.70816E-01  2.39002E-05 -6.81927E-05  9.76574E-06  2.46788E-03  3.90991E+00 -2.31998E-05  4.43943E-05 -5.10666E-05 -2.40047E-06  1.50000E+01
  2.01061E+01  1.99010E+01  2.01675E+01  6.65746E-03  1.24482E+00 -6.05371E-04 -3.58684E-01  2.94060E-05 -6.76166E-05  7.35675E-06  2.06024E-03  3.89382E+00 -1.42927E-05  4.59877E-05 -5.21365E-05 -2.26039E-06  1.50000E+01
  2.07704E+01  1.96152E+01  1.96499E+01 -5.11657E-01 -2.76003E-03 -7.68649E-02 -2.95845E-01  3.68368E-05 -1.94355E-04  6.66304E-05 -3.10595E-03 -2.27964E-02  4.75769E-03  4.60448E-05 -3.49610E-06 -3.37114E-06  1.50000E+01
  2.02550E+01  1.97132E+01  2.00259E+01 -1.88345E-01  9.68139E-01  5.85972E-03 -9.27716E-01 -2.35473E-04 -4.41093E-04  1.94226E-05  8.96454E-03  3.19641E+00  2.36668E-04  4.21743E-05 -2.92463E-05 -2.08683E-06  1.50000E+01
  2.02561E+01  1.97148E+01  2.00539E+01 -1.79779E-01  9.79238E-01  1.17578E-02 -8.05635E-01 -1.75263E-04 -3.45713E-04  3.08676E-05  1.01840E-02  3.25284E+00  5.21385E-05  4.18709E-05 -2.99388E-05 -3.62724E-06  1.50000E+01
  2.04539E+01  1.96631E+01  2.00925E+01 -5.20619E-01 -7.57202E-02  5.39314E-02 -3.90628E-01  4.40662E-05 -1.00821E-04 -9.45496E-06 -3.06414E-03 -2.76583E-01 -1.96053E-03  3.87411E-05  1.98327E-06 -2.55378E-06  1.50000E+01
  2.04534E+01  1.96646E+01  2.00674E+01 -5.22228E-01 -1.02819E-01  3.85798E-02 -3.51986E-01  4.46036E-05 -8.66953E-05 -6.48859E-06 -1.78071E-03 -3.54818E-01 -2.00486E-03  3.86962E-05  2.48795E-06 -1.96514E-06  1.50000E+01
  2.02859E+01  1.97237E+01  2.01782E+01 -1.29052E-01  1.04603E+00  2.49387E-02 -7.39851E-01 -9.04456E-05 -1.94631E-04  5.72031E-05  1.85857E-02  3.43950E+00 -4.87109E-03  3.86934E-05 -3.37084E-05 -5.38113E-06  1.50000E+01
  2.02721E+01  1.97410E+01  2.01904E+01 -8.25048E-02  1.10448E+00  1.22016E-02 -6.60764E-01 -1.07106E-04 -1.95687E-04  7.17385E-05  1.76022E-02  3.60309E+00 -5.82343E-03  3.66811E-05 -3.57031E-05 -4.80339E-06  1.50000E+01
  2.02905E+01  1.97313E+01  2.02045E+01 -1.01952E-01  1.08166E+00  1.99276E-02 -6.81911E-01 -8.48954E-05 -1.75736E-04  6.18496E-05  1.96763E-02  3.52725E+00 -6.62935E-03  3.71450E-05 -3.51984E-05 -5.22301E-06  1.50000E+01
  2.06645E+01  1.96368E+01  1.97093E+01 -5.18664E-01 -6.11077E-02 -8.46489E-02 -2.22013E-01  4.66914E-05 -1.52936E-04  4.56511E-05 -1.26086E-03 -2.17533E-01  7.12748E-03  4.41350E-05  3.92049E-07 -7.85666E-07  1.50000E+01
  2.02910E+01  1.96914E+01  2.00251E+01 -3.04643E-01  7.75547E-01  1.11434E-02 -1.35765E+00 -2.64131E-04 -6.46382E-04  1.97417E-05 -9.45515E-03  2.59940E+00  1.65667E-03  4.65305E-05 -2.39658E-05 -2.11932E-06  1.50000E+01
  2.02905E+01  1.96911E+01  1.99970E+01 -3.07320E-01  7.71629E-01 -2.01331E-03 -1.39442E+00 -2.78970E-04 -6.78650E-04 -1.39405E-06 -1.00898E-02  2.54657E+00 -3.05095E-04  4.57867E-05 -2.33506E-05  3.74140E-07  1.50000E+01
  2.04530E+01  1.96656E+01  2.00422E+01 -5.23667E-01 -1.20291E-01  2.41675E-02 -3.37978E-01  4.56709E-05 -7.75155E-05 -3.84428E-06 -1.23440E-03 -4.08052E-01 -1.54205E-03  3.94095E-05  2.85593E-06 -1.38917E-06  1.50000E+01
  2.07492E+01  1.96202E+01  1.96615E+01 -5.14165E-01 -1.93665E-02 -7.79841E-02 -2.90876E-01  3.85115E-05 -2.01454E-04  6.84489E-05 -2.68631E-03 -7.70070E-02  5.29820E-03  4.55439E-05 -2.55740E-06 -2.53461E-06  1.50000E+01
  2.07280E+01  1.96250E+01  1.96732E+01 -5.15984E-01 -3.36508E-02 -7.92446E-02 -2.82953E-01  4.07590E-05 -1.91136E-04  6.30636E-05 -2.27751E-03 -1.24107E-01  5.84983E-03  4.48248E-05 -1.81522E-06 -2.31374E-06  1.50000E+01
  2.02788E+01  1.97117E+01  2.01240E+01 -1.83517E-01  9.70887E-01  2.87171E-02 -8.84331E-01 -1.03720E-04 -2.42256E-04  4.40363E-05  1.29077E-02  3.25871E+00 -8.59621E-04  4.20603E-05 -3.13503E-05 -6.41210E-06  1.50000E+01
  2.02604E+01  1.97217E+01  2.01097E+01 -1.47618E-01  1.02141E+00  1.80678E-02 -9.42788E-01 -1.18834E-04 -2.44598E-04  4.55711E-05  1.43712E-02  3.39779E+00 -1.79856E-03  4.00745E-05 -3.17780E-05 -4.89334E-06  1.50000E+01
  2.04933E+01  1.96702E+01  1.99903E+01 -5.27886E-01 -1.86293E-01 -3.17426E-03 -1.98319E-01  4.64961E-05 -2.71852E-05  1.25357E-07  3.69982E-04 -5.93747E-01  3.12793E-04  4.24399E-05  4.58009E-06 -2.09553E-07  1.50000E+01
  2.04728E+01  1.96679E+01  1.99779E+01 -5.26497E-01 -1.62589E-01 -9.56645E-03 -2.52849E-01  4.71287E-05 -4.65793E-05  1.03130E-06  5.41083E-05 -5.33614E-01  9.42637E-04  4.14122E-05  3.95437E-06  2.05763E-07  1.50000E+01
  2.04730E+01  1.96681E+01  2.00035E+01 -5.26163E-01 -1.65499E-01  2.74511E-03 -2.50344E-01  4.66924E-05 -4.17722E-05 -1.81005E-07  2.39174E-04 -5.38117E-01 -1.36771E-04  4.13907E-05  4.01003E-06 -8.84749E-08  1.50000E+01
  2.07502E+01  1.96115E+01  1.96370E+01 -5.06928E-01  1.57324E-02 -9.19997E-02 -3.33109E-01  3.35712E-05 -2.38191E-04  8.14944E-05 -3.63120E-03  2.74550E-02  6.40990E-03  4.52827E-05 -2.79788E-06 -1.38491E-06  1.50000E+01
  2.04556E+01  1.96573E+01  2.01680E+01 -5.11214E-01  7.70693E-02  1.07427E-01 -4.98859E-01  3.78206E-05 -1.63363E-04 -1.58473E-05 -1.50763E-02  1.68553E-01  2.71151E-03  4.24961E-05 -1.29566E-06 -2.66964E-06  1.50000E+01
  2.04550E+01  1.96594E+01  2.01427E+01 -5.15966E-01  1.27094E-02  8.83112E-02 -4.51947E-01  4.48331E-05 -1.37973E-04 -1.29553E-05 -9.38347E-03 -2.28954E-02  1.05124E-04  4.40157E-05  5.84962E-08 -1.37824E-06  1.50000E+01
  2.02579E+01  1.97177E+01  2.00819E+01 -1.65824E-01  9.97593E-01  1.59910E-02 -9.02194E-01 -1.20580E-04 -2.56871E-04  3.39957E-05  1.21946E-02  3.32355E+00 -6.39392E-04  4.10929E-05 -3.07828E-05 -4.67300E-06  1.50000E+01
  2.03091E+01  1.97220E+01  2.02184E+01 -1.23888E-01  1.05643E+00  3.00677E-02 -6.58132E-01 -6.79489E-05 -1.62435E-04  5.37373E-05  2.08969E-02  3.43639E+00 -6.87152E-03  3.78726E-05 -3.46931E-05 -5.80263E-06  1.50000E+01
  2.03278E+01  1.97129E+01  2.02322E+01 -1.48027E-01  1.02858E+00  4.26213E-02 -7.76138E-01 -5.84541E-05 -1.57481E-04  4.95114E-05  2.08497E-02  3.33304E+00 -6.27697E-03  3.87907E-05 -3.39587E-05 -6.18186E-06  1.50000E+01
  2.03234E+01  1.97055E+01  2.02063E+01 -1.86727E-01  9.73214E-01  5.16267E-02 -7.41829E-01 -5.38862E-05 -1.65849E-04  4.21692E-05  1.58145E-02  3.17074E+00 -2.12067E-03  4.06131E-05 -3.18179E-05 -6.60842E-06  1.50000E+01
  2.00885E+01  1.99118E+01  2.01545E+01  6.90679E-03  1.24734E+00 -5.83598E-04 -3.34831E-01  3.89224E-05 -5.90297E-05  6.67305E-07  1.71631E-03  3.86448E+00 -5.34638E-05  4.55959E-05 -5.17891E-05 -2.98444E-06  1.50000E+01
  2.00770E+01  1.99316E+01  2.01656E+01  5.34545E-03  1.25088E+00 -4.63162E-04 -3.96781E-01  5.89591E-05 -4.95009E-05 -1.27035E-05  1.45507E-03  3.84624E+00 -5.48826E-05  4.86619E-05 -5.71475E-05 -5.84524E-06  1.50000E+01