 TITLE="3D TRIANGULAR SURFACE DATA"
VARIABLES="X","Y","Z","U","V","W","P", "Fex", "Fey", "Fez","Finx","Finy","Finz","WSSx","WSSy","WSSz","AMForce"
 ZONE T="unstruc"N=        1757 E=        3355 F=FEPOINT  ET=TRIANGLE
  2.04157E+01  2.01303E+01  2.00989E+01  2.89602E-01  1.08708E+00 -1.79588E-03 -7.48932E-01 -3.28623E-04 -5.12896E-04  1.27434E-04  4.21883E-03  4.49721E+00 -3.59469E-04  1.96424E-05 -1.30499E-05  2.29211E-06  1.50000E+01
  2.04341E+01  2.01175E+01  2.00991E+01  3.01590E-01  1.11131E+00 -1.30397E-03 -7.99331E-01 -1.57170E-04 -2.40603E-04  5.90019E-05  4.22482E-03  2.15501E+00  7.60894E-05  9.40932E-06 -6.45123E-06  8.62197E-07  1.50000E+01
  2.04290E+01  2.01164E+01  2.00777E+01  3.02641E-01  1.10568E+00 -6.73475E-04 -7.55000E-01 -2.29747E-04 -3.53290E-04  6.72223E-05  1.29100E-03  3.17091E+00  1.98976E-03  1.31324E-05 -9.00285E-06  1.15627E-06  1.50000E+01
  2.04151E+01  2.01399E+01  2.01303E+01  2.79426E-01  1.08489E+00 -2.36467E-03 -8.01862E-01 -2.76206E-04 -4.30410E-04  1.40312E-04  1.96408E-03  3.78551E+00  4.17700E-04  1.76713E-05 -1.14564E-05  2.67648E-06  1.50000E+01
  2.04321E+01  2.01248E+01  2.01204E+01  2.93619E-01  1.10813E+00 -2.16631E-03 -8.12659E-01 -2.32016E-04 -3.54214E-04  1.06736E-04  1.10836E-03  3.15621E+00 -2.32428E-03  1.43280E-05 -9.67055E-06  1.71252E-06  1.50000E+01
  2.04475E+01  2.01112E+01  2.01114E+01  3.06503E-01  1.12866E+00 -1.14426E-03 -8.20711E-01 -2.02275E-04 -3.05250E-04  8.36449E-05  2.08176E-03  2.76600E+00  6.27307E-04  1.22198E-05 -8.49020E-06  1.07263E-06  1.50000E+01
  2.04459E+01  2.01064E+01  2.00873E+01  3.11510E-01  1.12708E+00 -8.75070E-04 -8.00881E-01 -2.02612E-04 -3.06950E-04  6.47832E-05  2.78621E-03  2.77859E+00 -8.95772E-04  1.16493E-05 -8.13573E-06  8.55071E-07  1.50000E+01
  2.04258E+01  2.01143E+01  2.00503E+01  3.04937E-01  1.10200E+00 -4.81445E-04 -7.38985E-01 -2.50407E-04 -3.87246E-04  4.83811E-05  1.95155E-03  3.44180E+00  3.13431E-04  1.33305E-05 -9.13756E-06  9.44634E-07  1.50000E+01
  2.04104E+01  2.01273E+01  2.00670E+01  2.93043E-01  1.08111E+00 -1.32556E-03 -7.47581E-01 -2.77316E-04 -4.36171E-04  7.48064E-05  2.41033E-03  3.80716E+00 -9.06695E-04  1.52817E-05 -1.02022E-05  1.50367E-06  1.50000E+01
  2.04079E+01  2.01251E+01  2.00378E+01  2.95460E-01  1.07826E+00 -7.77886E-04 -7.63700E-01 -2.58779E-04 -4.07166E-04  3.94409E-05  2.40094E-03  3.56923E+00 -3.23591E-04  1.33126E-05 -8.97108E-06  8.74739E-07  1.50000E+01
  2.04328E+01  2.01332E+01  2.01468E+01  2.84749E-01  1.10810E+00 -2.40225E-03 -8.19395E-01 -2.49383E-04 -3.80544E-04  1.39348E-04  1.38294E-03  3.39781E+00 -6.99881E-04  1.61675E-05 -1.06860E-05  2.36714E-06  1.50000E+01
  2.04485E+01  2.01181E+01  2.01361E+01  2.98952E-01  1.12946E+00 -1.76939E-03 -8.21768E-01 -2.33927E-04 -3.51542E-04  1.18036E-04  8.02974E-04  3.19249E+00 -7.95042E-04  1.47702E-05 -1.01465E-05  1.64593E-06  1.50000E+01
  2.03769E+01  2.01565E+01  2.00980E+01  2.65533E-01  1.03360E+00 -2.66366E-03 -7.07776E-01 -2.65046E-04 -4.31014E-04  1.09657E-04  2.80759E-03  3.66599E+00 -1.92487E-04  1.68288E-05 -1.05483E-05  2.64304E-06  1.50000E+01
  2.03748E+01  2.01516E+01  2.00687E+01  2.71073E-01  1.03209E+00 -2.02194E-03 -6.92590E-01 -2.58937E-04 -4.22419E-04  7.57198E-05  2.99149E-03  3.60680E+00 -1.68872E-04  1.54161E-05 -9.84347E-06  1.89775E-06  1.50000E+01
  2.03579E+01  2.01655E+01  2.00831E+01  2.57775E-01  1.00763E+00 -2.70329E-03 -6.89213E-01 -2.45409E-04 -4.07756E-04  8.93735E-05  3.05734E-03  3.44422E+00 -1.96090E-04  1.54664E-05 -9.58029E-06  2.29146E-06  1.50000E+01
  2.03964E+01  2.01476E+01  2.01134E+01  2.73182E-01  1.05991E+00 -2.53238E-03 -7.51637E-01 -2.90005E-04 -4.60784E-04  1.33044E-04  3.20470E-03  3.98987E+00 -2.57077E-04  1.85059E-05 -1.17974E-05  2.86849E-06  1.50000E+01
  2.03792E+01  2.01634E+01  2.01267E+01  2.57784E-01  1.03489E+00 -3.26163E-03 -7.11449E-01 -2.58317E-04 -4.17422E-04  1.37436E-04  2.59402E-03  3.57537E+00 -3.25480E-04  1.75281E-05 -1.06598E-05  3.49051E-06  1.50000E+01
  2.03982E+01  2.01558E+01  2.01423E+01  2.64014E-01  1.06059E+00 -3.01162E-03 -7.58046E-01 -2.62310E-04 -4.14541E-04  1.51099E-04  2.14302E-03  3.61276E+00 -1.21003E-05  1.77930E-05 -1.10054E-05  3.51187E-06  1.50000E+01
  2.03941E+01  2.01416E+01  2.00834E+01  2.79803E-01  1.05825E+00 -1.97287E-03 -7.33482E-01 -2.91632E-04 -4.65429E-04  9.97455E-05  2.99775E-03  4.00005E+00 -1.77640E-04  1.70900E-05 -1.11067E-05  2.10866E-06  1.50000E+01
  2.03915E+01  2.01380E+01  2.00536E+01  2.83666E-01  1.05574E+00 -1.42003E-03 -7.38990E-01 -2.63260E-04 -4.21404E-04  5.84112E-05  2.57434E-03  3.65848E+00 -3.59297E-04  1.43591E-05 -9.44843E-06  1.28057E-06  1.50000E+01
  2.04619E+01  2.00977E+01  2.00995E+01  3.18731E-01  1.14761E+00 -5.98621E-04 -8.21046E-01 -2.27956E-04 -3.41903E-04  8.18457E-05  1.91920E-03  3.10244E+00 -1.63009E-05  1.33589E-05 -9.43952E-06  9.07054E-07  1.50000E+01
  2.04601E+01  2.00935E+01  2.00737E+01  3.22912E-01  1.14572E+00 -3.83230E-04 -8.12825E-01 -2.36816E-04 -3.56048E-04  6.26807E-05  2.29539E-03  3.21062E+00 -4.92433E-04  1.32685E-05 -9.38796E-06  7.99963E-07  1.50000E+01
  2.04636E+01  2.01034E+01  2.01250E+01  3.12722E-01  1.14949E+00 -8.63206E-04 -8.25830E-01 -2.33623E-04 -3.48571E-04  1.05519E-04  1.83702E-03  3.19389E+00  2.62614E-04  1.44306E-05 -1.02092E-05  1.05865E-06  1.50000E+01
  2.04432E+01  2.01037E+01  2.00619E+01  3.14089E-01  1.12445E+00 -3.15942E-04 -7.80326E-01 -2.33147E-04 -3.54322E-04  5.30482E-05  1.13136E-03  3.22688E+00  4.50830E-04  1.29350E-05 -9.04454E-06  8.59428E-07  1.50000E+01
  2.04583E+01  2.00909E+01  2.00471E+01  3.25484E-01  1.14404E+00  1.84628E-05 -7.80939E-01 -2.44536E-04 -3.68270E-04  4.14156E-05  1.83104E-03  3.38099E+00  1.54325E-04  1.32128E-05 -9.37037E-06  6.51990E-07  1.50000E+01
  2.03900E+01  2.01361E+01  2.00244E+01  2.85830E-01  1.05414E+00 -7.78830E-04 -7.23250E-01 -2.48872E-04 -3.99004E-04  2.55778E-05  2.83242E-03  3.51346E+00 -2.82986E-04  1.29892E-05 -8.63082E-06  6.26279E-07  1.50000E+01
  2.04241E+01  2.01128E+01  2.00221E+01  3.06535E-01  1.10004E+00 -1.52872E-04 -7.87215E-01 -2.53658E-04 -3.92980E-04  2.20307E-05  2.42794E-03  3.49152E+00  1.66578E-05  1.26933E-05 -8.73137E-06  5.42186E-07  1.50000E+01
  2.04067E+01  2.01242E+01  2.00090E+01  2.96593E-01  1.07691E+00 -2.24583E-04 -7.68160E-01 -2.51220E-04 -3.95752E-04  9.55614E-06  2.76165E-03  3.49667E+00 -1.82390E-04  1.25912E-05 -8.52385E-06  2.60253E-07  1.50000E+01
  2.03818E+01  2.01718E+01  2.01545E+01  2.48252E-01  1.03621E+00 -3.74777E-03 -7.69845E-01 -2.44891E-04 -3.93021E-04  1.58360E-04  2.24763E-03  3.43873E+00 -2.36554E-04  1.78598E-05 -1.03461E-05  4.57830E-06  1.50000E+01
  2.04007E+01  2.01650E+01  2.01696E+01  2.53859E-01  1.06195E+00 -3.46473E-03 -7.89248E-01 -2.48374E-04 -3.89534E-04  1.70322E-04  2.03596E-03  3.45072E+00 -1.70738E-04  1.80611E-05 -1.06987E-05  4.40024E-06  1.50000E+01
  2.07435E+01  1.99856E+01  1.96659E+01  4.12872E-01  1.50709E+00 -9.77465E-03 -8.13741E-01 -2.62061E-04 -3.78162E-04 -2.47023E-04  1.76642E-03  4.74305E+00 -4.58194E-04  2.82697E-05 -2.91364E-05  7.95903E-06  1.50000E+01
  2.07251E+01  1.99900E+01  1.96813E+01  4.08202E-01  1.48223E+00 -9.66068E-03 -8.76382E-01 -2.87018E-04 -3.99487E-04 -2.51622E-04  1.71300E-03  4.66079E+00 -3.48523E-04  2.70595E-05 -2.76175E-05  6.93695E-06  1.50000E+01
  2.07378E+01  1.99716E+01  1.96927E+01  4.24793E-01  1.49478E+00 -1.02868E-02 -8.40186E-01 -2.62982E-04 -3.80825E-04 -2.24366E-04  1.79764E-03  4.69990E+00 -4.35313E-04  2.81472E-05 -2.85032E-05  8.13836E-06  1.50000E+01
  2.07197E+01  1.99765E+01  1.97084E+01  4.19766E-01  1.47080E+00 -9.88253E-03 -8.85855E-01 -2.89262E-04 -4.03327E-04 -2.29033E-04  1.76260E-03  4.62141E+00 -3.24108E-04  2.65973E-05 -2.66256E-05  7.03515E-06  1.50000E+01
  2.07327E+01  1.99586E+01  1.97202E+01  4.35745E-01  1.48330E+00 -1.05148E-02 -8.18141E-01 -2.67867E-04 -3.87097E-04 -2.04776E-04  1.82990E-03  4.65996E+00 -4.04112E-04  2.83361E-05 -2.79832E-05  8.18012E-06  1.50000E+01
  2.08005E+01  1.99765E+01  1.96205E+01  4.25197E-01  1.58634E+00 -7.27312E-03 -3.91149E-01 -7.03995E-05 -1.73126E-04 -1.07064E-04  2.20562E-03  5.00357E+00 -5.28911E-04  3.25664E-05 -3.26093E-05  1.06150E-05  1.50000E+01
  2.07812E+01  1.99787E+01  1.96354E+01  4.21500E-01  1.55915E+00 -8.63106E-03 -6.15802E-01 -1.69332E-04 -2.89510E-04 -1.97029E-04  2.06278E-03  4.91461E+00 -5.37812E-04  3.01923E-05 -3.11448E-05  9.96812E-06  1.50000E+01
  2.07938E+01  1.99605E+01  1.96464E+01  4.38468E-01  1.57134E+00 -9.06792E-03 -3.61308E-01 -9.23805E-05 -1.97024E-04 -1.15536E-04  2.17466E-03  4.95420E+00 -5.87355E-04  3.08244E-05 -3.09861E-05  1.06834E-05  1.50000E+01
  2.04657E+01  2.01106E+01  2.01506E+01  3.05107E-01  1.15174E+00 -1.29859E-03 -8.56040E-01 -2.49434E-04 -3.69379E-04  1.35166E-04  1.56090E-03  3.35681E+00 -4.39086E-04  1.59691E-05 -1.12144E-05  1.49587E-06  1.50000E+01
  2.07876E+01  1.99456E+01  1.96731E+01  4.50688E-01  1.55705E+00 -1.05013E-02 -5.35656E-01 -1.39161E-04 -2.60141E-04 -1.47061E-04  2.17862E-03  4.90723E+00 -5.97652E-04  3.38250E-05 -3.26338E-05  1.06952E-05  1.50000E+01
  2.08066E+01  1.99428E+01  1.96577E+01  4.54926E-01  1.58318E+00 -9.64645E-03 -4.96580E-01 -5.67053E-05 -1.57169E-04 -7.64145E-05  2.24784E-03  4.99318E+00 -6.71688E-04  3.59872E-05 -3.48936E-05  1.26967E-05  1.50000E+01
  2.04740E+01  2.00782E+01  2.00326E+01  3.36626E-01  1.16389E+00  2.81969E-04 -8.14179E-01 -2.58624E-04 -3.84560E-04  2.93349E-05  2.26498E-03  3.48009E+00  9.12177E-05  1.31612E-05 -9.46249E-06  3.71373E-07  1.50000E+01
  2.04573E+01  2.00894E+01  2.00197E+01  3.26988E-01  1.14292E+00  3.05977E-04 -7.93668E-01 -2.46374E-04 -3.71480E-04  1.74196E-05  2.24945E-03  3.46902E+00  2.45998E-04  1.27463E-05 -9.05534E-06  3.53638E-07  1.50000E+01
  2.04168E+01  2.01489E+01  2.01580E+01  2.69686E-01  1.08543E+00 -2.83764E-03 -8.15107E-01 -2.57027E-04 -3.97757E-04  1.59185E-04  1.77281E-03  3.50721E+00 -8.31211E-05  1.74713E-05 -1.10178E-05  3.27808E-06  1.50000E+01
  2.04196E+01  2.01585E+01  2.01846E+01  2.59305E-01  1.08728E+00 -3.20847E-03 -8.45359E-01 -2.51596E-04 -3.85915E-04  1.81853E-04  2.16765E-03  3.44005E+00 -3.08169E-04  1.80770E-05 -1.09835E-05  4.12399E-06  1.50000E+01
  2.04351E+01  2.01422E+01  2.01732E+01  2.75232E-01  1.10976E+00 -2.65023E-03 -8.46647E-01 -2.52082E-04 -3.82147E-04  1.65811E-04  1.96660E-03  3.43277E+00 -4.20267E-04  1.72905E-05 -1.12013E-05  2.94665E-06  1.50000E+01
  2.03894E+01  2.01358E+01  1.99956E+01  2.86272E-01  1.05336E+00 -7.99392E-05 -7.23872E-01 -2.42467E-04 -3.88851E-04 -3.90961E-06  2.95731E-03  3.43522E+00 -1.87279E-04  1.24191E-05 -8.27551E-06 -7.85927E-08  1.50000E+01
  2.04235E+01  2.01127E+01  1.99938E+01  3.06820E-01  1.09919E+00  2.54058E-04 -7.89058E-01 -2.52182E-04 -3.91445E-04 -5.84952E-06  2.77775E-03  3.48348E+00 -1.25871E-05  1.25006E-05 -8.59919E-06 -2.13004E-07  1.50000E+01
  2.04065E+01  2.01247E+01  1.99805E+01  2.96113E-01  1.07641E+00  3.60611E-04 -7.68739E-01 -2.48962E-04 -3.92236E-04 -1.89979E-05  2.89707E-03  3.44930E+00 -9.32901E-05  1.24633E-05 -8.42379E-06 -4.77328E-07  1.50000E+01
  2.07413E+01  1.99299E+01  1.97606E+01  4.60611E-01  1.48498E+00 -1.09876E-02 -7.57641E-01 -2.29459E-04 -3.55352E-04 -1.51348E-04  1.90299E-03  4.66158E+00 -4.43767E-04  3.06096E-05 -2.86625E-05  8.92077E-06  1.50000E+01
  2.07589E+01  1.99242E+01  1.97445E+01  4.66410E-01  1.50760E+00 -1.16888E-02 -6.83079E-01 -1.93456E-04 -3.20930E-04 -1.41350E-04  1.97903E-03  4.73998E+00 -5.37922E-04  3.24798E-05 -3.06134E-05  1.04012E-05  1.50000E+01
  2.07457E+01  1.99412E+01  1.97322E+01  4.51306E-01  1.49556E+00 -1.11127E-02 -7.66558E-01 -2.35458E-04 -3.59077E-04 -1.74772E-04  1.90298E-03  4.69898E+00 -4.72728E-04  2.95898E-05 -2.87347E-05  9.23288E-06  1.50000E+01
  2.04786E+01  2.00889E+01  2.01127E+01  3.25996E-01  1.16892E+00 -2.62034E-04 -8.42238E-01 -2.47497E-04 -3.66785E-04  9.81257E-05  2.18697E-03  3.35010E+00  4.82563E-05  1.49253E-05 -1.07584E-05  7.16317E-07  1.50000E+01
  2.01358E+01  2.03387E+01  2.01911E+01  6.11151E-02  6.24961E-01 -5.32841E-03 -6.43441E-01 -1.50570E-04 -3.63435E-04  2.09143E-04  3.29881E-03  1.96690E+00 -2.39560E-03  3.31119E-05 -1.42927E-05  5.50209E-06  1.50000E+01
  2.01189E+01  2.03538E+01  2.02017E+01  3.98010E-02  5.87242E-01 -3.21846E-03 -1.12257E+00 -1.89398E-04 -4.78575E-04  2.82669E-04  2.70552E-03  1.84946E+00 -2.74282E-03  4.54198E-05 -2.01313E-05  5.03068E-06  1.50000E+01
  2.01396E+01  2.03511E+01  2.02146E+01  4.33906E-02  6.19033E-01 -3.17154E-03 -1.12620E+00 -2.07503E-04 -4.90158E-04  3.08130E-04  2.49205E-03  1.95368E+00 -2.43731E-03  4.49869E-05 -2.08151E-05  4.77497E-06  1.50000E+01
  2.07950E+01  1.99149E+01  1.97125E+01  4.77155E-01  1.55520E+00 -1.22135E-02  1.67153E-01 -1.79070E-05 -1.17332E-04 -3.21982E-05  2.11240E-03  4.90146E+00 -8.16173E-04  3.89924E-05 -3.66128E-05  1.42898E-05  1.50000E+01
  2.08135E+01  1.99114E+01  1.96967E+01  4.81923E-01  1.58017E+00 -1.19186E-02 -1.82239E-01 -3.82900E-06 -6.01704E-05 -1.64990E-05  2.12346E-02  2.52783E+00 -9.74674E-04  2.24089E-05 -2.08906E-05  8.27832E-06  1.50000E+01
  2.08005E+01  1.99283E+01  1.96848E+01  4.66590E-01  1.56876E+00 -1.11656E-02 -4.25938E-01 -9.54027E-05 -2.23472E-04 -1.08860E-04  2.24250E-03  4.94615E+00 -7.03687E-04  4.17703E-05 -3.92797E-05  1.41333E-05  1.50000E+01
  2.07507E+01  1.99536E+01  1.97044E+01  4.40977E-01  1.50710E+00 -1.08910E-02 -7.22450E-01 -2.34908E-04 -3.57952E-04 -1.96155E-04  1.88624E-03  4.73896E+00 -4.97466E-04  2.95813E-05 -2.94581E-05  9.26310E-06  1.50000E+01
  2.07637E+01  1.99362E+01  1.97163E+01  4.56718E-01  1.51917E+00 -1.14944E-02 -6.50815E-01 -1.89401E-04 -3.15885E-04 -1.57645E-04  1.99289E-03  4.77939E+00 -5.58945E-04  3.09702E-05 -3.00345E-05  1.01530E-05  1.50000E+01
  2.03894E+01  2.01370E+01  1.99672E+01  2.84922E-01  1.05315E+00  6.56747E-04 -7.23462E-01 -2.41268E-04 -3.87096E-04 -3.21771E-05  2.87750E-03  3.38750E+00 -5.90519E-05  1.27381E-05 -8.43792E-06 -7.16289E-07  1.50000E+01
  2.03731E+01  2.01486E+01  2.00395E+01  2.74459E-01  1.03070E+00 -1.34237E-03 -7.22402E-01 -2.51457E-04 -4.09289E-04  4.26084E-05  2.97364E-03  3.49098E+00 -2.71652E-04  1.34522E-05 -8.73450E-06  1.06466E-06  1.50000E+01
  2.03722E+01  2.01473E+01  2.00106E+01  2.75933E-01  1.02982E+00 -5.70938E-04 -7.34026E-01 -2.43152E-04 -3.96175E-04  1.15177E-05  3.04781E-03  3.40730E+00 -2.29791E-04  1.24842E-05 -8.17403E-06  2.90478E-07  1.50000E+01
  2.07880E+01  1.99950E+01  1.96098E+01  4.07760E-01  1.57397E+00 -7.01705E-03 -8.01068E-01 -1.68035E-04 -2.91837E-04 -2.18946E-04  2.11104E-03  4.96376E+00 -4.82244E-04  3.05144E-05 -3.12948E-05  9.36753E-06  1.50000E+01
  2.07149E+01  1.99642E+01  1.97360E+01  4.30357E-01  1.46022E+00 -9.85563E-03 -8.63948E-01 -2.90899E-04 -4.08087E-04 -2.06821E-04  1.79603E-03  4.58258E+00 -2.98805E-04  2.69739E-05 -2.62537E-05  7.05380E-06  1.50000E+01
  2.07280E+01  1.99468E+01  1.97481E+01  4.45696E-01  1.47271E+00 -1.04467E-02 -8.19399E-01 -2.64732E-04 -3.86846E-04 -1.80929E-04  1.83431E-03  4.62150E+00 -3.73636E-04  2.81397E-05 -2.69398E-05  7.82959E-06  1.50000E+01
  2.03562E+01  2.01614E+01  2.00542E+01  2.62458E-01  1.00656E+00 -1.93637E-03 -6.83414E-01 -2.42850E-04 -4.03225E-04  5.78560E-05  3.21984E-03  3.40472E+00 -1.95910E-04  1.40436E-05 -8.88133E-06  1.42660E-06  1.50000E+01
  2.03379E+01  2.01714E+01  2.00400E+01  2.53583E-01  9.81088E-01 -1.69404E-03 -6.63011E-01 -2.21030E-04 -3.76058E-04  4.05755E-05  3.37051E-03  3.25564E+00 -1.70454E-04  1.33650E-05 -8.34723E-06  1.13201E-06  1.50000E+01
  2.03392E+01  2.01746E+01  2.00684E+01  2.49806E-01  9.81791E-01 -2.62141E-03 -6.78656E-01 -2.28996E-04 -3.89058E-04  7.13504E-05  3.34879E-03  3.28420E+00 -2.10248E-04  1.45234E-05 -8.89776E-06  1.90185E-06  1.50000E+01
  2.04768E+01  2.00839E+01  2.00865E+01  3.31036E-01  1.16681E+00 -1.29553E-04 -8.13325E-01 -2.48979E-04 -3.70308E-04  7.55875E-05  2.22453E-03  3.34863E+00 -9.28832E-05  1.42972E-05 -1.02838E-05  6.06232E-07  1.50000E+01
  2.04752E+01  2.00804E+01  2.00598E+01  3.34550E-01  1.16510E+00  3.09866E-05 -8.13275E-01 -2.55242E-04 -3.79847E-04  5.34511E-05  2.39075E-03  3.41286E+00 -2.21747E-04  1.38419E-05 -9.94285E-06  5.64928E-07  1.50000E+01
  2.04899E+01  2.00659E+01  2.00183E+01  3.47350E-01  1.18362E+00  4.24840E-04 -8.17536E-01 -2.72127E-04 -3.99647E-04  1.66155E-05  2.37837E-03  3.55817E+00  6.80839E-05  1.32916E-05 -9.67615E-06  1.88680E-07  1.50000E+01
  2.04734E+01  2.00775E+01  2.00050E+01  3.37416E-01  1.16324E+00  4.71714E-04 -8.07453E-01 -2.60312E-04 -3.86995E-04  4.19602E-06  2.40526E-03  3.52318E+00  2.06017E-04  1.28497E-05 -9.24696E-06  4.73404E-08  1.50000E+01
  2.07690E+01  1.99493E+01  1.96887E+01  4.45994E-01  1.53167E+00 -1.09058E-02 -6.63964E-01 -1.91995E-04 -3.17502E-04 -1.78639E-04  2.01222E-03  4.82219E+00 -5.61053E-04  3.06979E-05 -3.03483E-05  9.92125E-06  1.50000E+01
  2.07748E+01  1.99635E+01  1.96617E+01  4.34252E-01  1.54503E+00 -9.94130E-03 -5.97900E-01 -1.76155E-04 -2.96757E-04 -1.83299E-04  2.03723E-03  4.86794E+00 -5.63802E-04  3.05602E-05 -3.08703E-05  9.94700E-06  1.50000E+01
  2.07069E+01  1.99949E+01  1.96968E+01  4.03397E-01  1.45805E+00 -9.20901E-03 -9.39638E-01 -3.04930E-04 -4.13593E-04 -2.50745E-04  1.72770E-03  4.58187E+00 -2.31037E-04  2.57506E-05 -2.60771E-05  6.25557E-06  1.50000E+01
  2.03626E+01  2.01789E+01  2.01394E+01  2.42350E-01  1.01007E+00 -4.01923E-03 -7.10774E-01 -2.42043E-04 -3.97290E-04  1.46613E-04  2.65674E-03  3.37038E+00 -3.59806E-04  1.72807E-05 -9.94282E-06  4.24461E-06  1.50000E+01
  2.03463E+01  2.01945E+01  2.01518E+01  2.26466E-01  9.84769E-01 -4.79201E-03 -7.18921E-01 -2.29433E-04 -3.82888E-04  1.56452E-04  2.67866E-03  3.24075E+00 -4.73363E-04  1.77254E-05 -9.54993E-06  5.19876E-06  1.50000E+01
  2.03656E+01  2.01878E+01  2.01665E+01  2.32059E-01  1.01142E+00 -4.49433E-03 -7.68971E-01 -2.35883E-04 -3.83813E-04  1.69954E-04  2.44430E-03  3.31607E+00 -3.94551E-04  1.80597E-05 -9.83867E-06  5.36134E-06  1.50000E+01
  2.07819E+01  1.99318E+01  1.97005E+01  4.61850E-01  1.54358E+00 -1.15279E-02 -4.97491E-01 -1.25546E-04 -2.47579E-04 -1.22695E-04  2.11492E-03  4.86222E+00 -6.39241E-04  3.57561E-05 -3.38771E-05  1.13367E-05  1.50000E+01
  2.07309E+01  2.00044E+01  1.96548E+01  3.95710E-01  1.49444E+00 -9.20435E-03 -9.06308E-01 -2.92098E-04 -4.02252E-04 -2.79856E-04  1.68194E-03  4.70332E+00 -3.64820E-04  2.73070E-05 -2.83252E-05  6.76274E-06  1.50000E+01
  2.07124E+01  2.00087E+01  1.96702E+01  3.91239E-01  1.46942E+00 -9.00226E-03 -9.20950E-01 -3.10141E-04 -4.16714E-04 -2.79523E-04  1.67282E-03  4.62086E+00 -2.41555E-04  2.66852E-05 -2.73626E-05  6.00786E-06  1.50000E+01
  2.04383E+01  2.01521E+01  2.01992E+01  2.64666E-01  1.11235E+00 -2.87594E-03 -8.87679E-01 -2.57720E-04 -3.86982E-04  1.94840E-04  2.42587E-03  3.46057E+00 -4.47280E-04  1.84955E-05 -1.15371E-05  3.95345E-06  1.50000E+01
  2.04535E+01  2.01354E+01  2.01879E+01  2.80824E-01  1.13396E+00 -2.25796E-03 -8.68131E-01 -2.58606E-04 -3.84204E-04  1.79114E-04  2.29253E-03  3.46105E+00 -4.83663E-04  1.79070E-05 -1.18667E-05  2.89106E-06  1.50000E+01
  2.04231E+01  2.01692E+01  2.02105E+01  2.47797E-01  1.08978E+00 -3.47052E-03 -9.24893E-01 -2.58368E-04 -3.91649E-04  2.12156E-04  2.37552E-03  3.44124E+00 -4.49485E-04  1.93365E-05 -1.14041E-05  4.86311E-06  1.50000E+01
  2.04236E+01  2.01140E+01  1.99656E+01  3.05494E-01  1.09903E+00  7.02091E-04 -7.67937E-01 -2.53207E-04 -3.93236E-04 -3.35911E-05  2.87119E-03  3.46833E+00  4.23798E-05  1.29532E-05 -8.86023E-06 -8.02849E-07  1.50000E+01
  2.07622E+01  1.99818E+01  1.96505E+01  4.17341E-01  1.53272E+00 -9.45522E-03 -7.43350E-01 -2.26848E-04 -3.47804E-04 -2.34075E-04  1.89118E-03  4.82830E+00 -5.24080E-04  2.95751E-05 -3.06386E-05  9.12579E-06  1.50000E+01
  2.07686E+01  1.99974E+01  1.96246E+01  4.04080E-01  1.54668E+00 -8.28946E-03 -8.67193E-01 -2.25371E-04 -3.46073E-04 -2.56567E-04  1.90643E-03  4.87444E+00 -5.12353E-04  2.88226E-05 -3.00295E-05  8.48594E-06  1.50000E+01
  2.07496E+01  2.00006E+01  1.96396E+01  4.00019E-01  1.52018E+00 -8.99814E-03 -9.15412E-01 -2.64933E-04 -3.79655E-04 -2.73794E-04  1.76151E-03  4.78828E+00 -4.65496E-04  2.82704E-05 -2.95648E-05  7.75892E-06  1.50000E+01
  2.06941E+01  2.00136E+01  1.96855E+01  3.86648E-01  1.44499E+00 -8.49601E-03 -9.71416E-01 -3.21873E-04 -4.26256E-04 -2.75173E-04  1.71861E-03  4.54166E+00 -1.26220E-04  2.59791E-05 -2.62932E-05  5.42553E-06  1.50000E+01
  2.04958E+01  2.00802E+01  2.01265E+01  3.33205E-01  1.19062E+00  1.41784E-04 -8.45373E-01 -2.65312E-04 -3.87410E-04  1.14724E-04  2.46728E-03  3.50462E+00 -1.39498E-05  1.59727E-05 -1.17896E-05  3.81039E-07  1.50000E+01
  2.04808E+01  2.00953E+01  2.01388E+01  3.19426E-01  1.17145E+00 -4.74539E-04 -8.43799E-01 -2.57160E-04 -3.77754E-04  1.25250E-04  2.27262E-03  3.41538E+00  4.83063E-05  1.58135E-05 -1.13996E-05  9.54867E-07  1.50000E+01
  2.03601E+01  2.01714E+01  2.01116E+01  2.51021E-01  1.00883E+00 -3.40717E-03 -6.92732E-01 -2.46096E-04 -4.07019E-04  1.19829E-04  2.89036E-03  3.42925E+00 -2.53107E-04  1.66159E-05 -9.99461E-06  3.18364E-06  1.50000E+01
  2.03411E+01  2.01796E+01  2.00967E+01  2.43935E-01  9.82677E-01 -3.46265E-03 -6.59694E-01 -2.32247E-04 -3.93436E-04  1.01702E-04  3.14900E-03  3.29062E+00 -2.65703E-04  1.56936E-05 -9.33424E-06  2.88998E-06  1.50000E+01
  2.01226E+01  2.03667E+01  2.02248E+01  2.09983E-02  5.79350E-01  0.00000E+00 -6.16537E-01 -8.80186E-05 -2.34183E-04  1.45907E-04  6.69454E+00 -2.30115E+01 -2.94261E+01  2.63791E-05 -1.25905E-05  1.30253E-06  1.50000E+01
  2.08259E+01  1.99408E+01  1.96426E+01  4.58610E-01  1.60999E+00 -8.31923E-03  1.03075E-01  2.42963E-05 -1.00073E-05  1.46416E-05  2.12807E-02  2.57825E+00  2.78579E-04  1.83285E-05 -1.78592E-05  6.87464E-06  1.50000E+01
  2.08132E+01  1.99584E+01  1.96315E+01  4.42155E-01  1.59835E+00 -7.70311E-03  1.37483E-01  3.46011E-05 -3.07579E-05  1.58550E-05  2.20868E-03  5.04260E+00 -6.67672E-04  3.27312E-05 -3.26526E-05  1.20817E-05  1.50000E+01
  2.07184E+01  2.00236E+01  1.96441E+01  3.78192E-01  1.48153E+00 -8.60704E-03 -9.89783E-01 -3.13823E-04 -4.17565E-04 -3.07619E-04  1.63084E-03  4.66305E+00 -2.50967E-04  2.62637E-05 -2.72788E-05  5.54342E-06  1.50000E+01
  2.06998E+01  2.00279E+01  1.96592E+01  3.73910E-01  1.45628E+00 -8.31172E-03 -1.00997E+00 -3.28431E-04 -4.28749E-04 -3.05098E-04  1.65675E-03  4.58031E+00 -1.27114E-04  2.63365E-05 -2.67895E-05  4.79251E-06  1.50000E+01
  2.03720E+01  2.01476E+01  1.99821E+01  2.75514E-01  1.02943E+00  2.68336E-04 -7.34938E-01 -2.39632E-04 -3.90253E-04 -1.77639E-05  2.98712E-03  3.34767E+00 -1.09761E-04  1.22502E-05 -8.01595E-06 -4.63803E-07  1.50000E+01
  2.04834E+01  2.01030E+01  2.01649E+01  3.11427E-01  1.17453E+00 -7.57614E-04 -8.61293E-01 -2.63802E-04 -3.84200E-04  1.51945E-04  2.07992E-03  3.49153E+00 -3.05884E-04  1.68248E-05 -1.20963E-05  1.30140E-06  1.50000E+01
  2.03848E+01  2.01814E+01  2.01813E+01  2.37431E-01  1.03782E+00 -4.15703E-03 -8.15596E-01 -2.39450E-04 -3.80459E-04  1.81309E-04  2.26270E-03  3.36760E+00 -3.23113E-04  1.83525E-05 -1.01855E-05  5.32589E-06  1.50000E+01
  2.04040E+01  2.01752E+01  2.01959E+01  2.42663E-01  1.06392E+00 -3.82553E-03 -8.77830E-01 -2.48930E-04 -3.86175E-04  1.96800E-04  2.23737E-03  3.40307E+00 -3.59797E-04  1.87760E-05 -1.06943E-05  5.15778E-06  1.50000E+01
  2.01526E+01  2.03237E+01  2.01801E+01  8.14233E-02  6.60457E-01 -6.55331E-03 -6.01743E-01 -1.26925E-04 -2.99825E-04  1.62299E-04  3.26948E-03  2.08268E+00 -1.89660E-03  2.89047E-05 -1.22276E-05  6.23183E-06  1.50000E+01
  2.01324E+01  2.03276E+01  2.01670E+01  7.69427E-02  6.29281E-01 -6.35050E-03 -4.73320E-01 -1.13361E-04 -2.86827E-04  1.42890E-04  3.84336E-03  1.97304E+00 -2.05381E-03  2.96642E-05 -1.30064E-05  5.06941E-06  1.50000E+01
  2.07756E+01  2.00139E+01  1.95993E+01  3.89897E-01  1.56132E+00 -6.87357E-03 -8.69742E-01 -2.23602E-04 -3.48372E-04 -2.81770E-04  1.94644E-03  4.92331E+00 -4.77042E-04  3.00366E-05 -3.06933E-05  7.71400E-06  1.50000E+01
  2.03197E+01  2.01816E+01  2.00260E+01  2.44291E-01  9.55388E-01 -1.29719E-03 -6.46805E-01 -2.04599E-04 -3.57273E-04  2.55611E-05  3.39087E-03  3.13029E+00 -1.15041E-04  1.29098E-05 -7.94732E-06  8.01254E-07  1.50000E+01
  2.03207E+01  2.01840E+01  2.00542E+01  2.41458E-01  9.55824E-01 -2.39377E-03 -6.53304E-01 -2.10485E-04 -3.66675E-04  5.38568E-05  3.44433E-03  3.15105E+00 -2.09231E-04  1.39536E-05 -8.47682E-06  1.49105E-06  1.50000E+01
  2.04937E+01  2.00745E+01  2.00999E+01  3.38899E-01  1.18804E+00  2.05443E-04 -8.32009E-01 -2.59776E-04 -3.82338E-04  8.89540E-05  2.42727E-03  3.48298E+00 -4.33725E-05  1.53962E-05 -1.12913E-05  3.34921E-07  1.50000E+01
  2.04920E+01  2.00702E+01  2.00730E+01  3.43140E-01  1.18599E+00  2.47303E-04 -8.08254E-01 -2.61957E-04 -3.86070E-04  6.54343E-05  2.42156E-03  3.49266E+00 -8.74217E-05  1.46466E-05 -1.06747E-05  4.11300E-07  1.50000E+01
  2.03496E+01  2.02041E+01  2.01785E+01  2.15264E-01  9.85945E-01 -5.19910E-03 -7.94100E-01 -2.26661E-04 -3.74268E-04  1.80929E-04  2.42015E-03  3.21546E+00 -5.10674E-04  1.85867E-05 -9.35375E-06  6.40353E-06  1.50000E+01
  2.03336E+01  2.02206E+01  2.01903E+01  1.97843E-01  9.59685E-01 -5.81491E-03 -8.36955E-01 -2.13265E-04 -3.59187E-04  1.88220E-04  2.35552E-03  3.11410E+00 -6.16959E-04  1.94809E-05 -9.12250E-06  7.26637E-06  1.50000E+01
  2.03532E+01  2.02150E+01  2.02045E+01  2.02664E-01  9.87228E-01 -5.41656E-03 -8.72181E-01 -2.29082E-04 -3.73884E-04  2.08224E-04  2.22924E-03  3.19663E+00 -5.58031E-04  1.99275E-05 -9.44033E-06  7.43568E-06  1.50000E+01
  2.06813E+01  2.00327E+01  1.96744E+01  3.69511E-01  1.43155E+00 -7.75184E-03 -1.01336E+00 -3.36735E-04 -4.36763E-04 -2.99778E-04  1.72040E-03  4.50047E+00 -2.20544E-05  2.55949E-05 -2.55498E-05  4.16909E-06  1.50000E+01
  2.03550E+01  2.01591E+01  2.00255E+01  2.65059E-01  1.00575E+00 -1.09727E-03 -7.29105E-01 -2.36427E-04 -3.92313E-04  2.68355E-05  3.23172E-03  3.34650E+00 -2.00913E-04  1.26920E-05 -8.12847E-06  7.41269E-07  1.50000E+01
  2.03545E+01  2.01586E+01  1.99969E+01  2.65647E-01  1.00528E+00 -1.77470E-04 -7.31724E-01 -2.30473E-04 -3.82623E-04 -2.67810E-06  3.12213E-03  3.29417E+00 -1.23979E-04  1.22068E-05 -7.85552E-06 -1.02045E-07  1.50000E+01
  2.04907E+01  2.00673E+01  2.00458E+01  3.45949E-01  1.18451E+00  3.19109E-04 -8.06343E-01 -2.67312E-04 -3.93604E-04  4.17030E-05  2.46420E-03  3.52406E+00 -9.31504E-05  1.38072E-05 -1.00360E-05  4.26398E-07  1.50000E+01
  2.07562E+01  2.00165E+01  1.96140E+01  3.86269E-01  1.53397E+00 -7.98621E-03 -9.11557E-01 -2.61717E-04 -3.78061E-04 -2.97455E-04  1.75494E-03  4.83393E+00 -4.63269E-04  2.80795E-05 -2.91279E-05  6.80183E-06  1.50000E+01
  2.07372E+01  2.00198E+01  1.96290E+01  3.82333E-01  1.50740E+00 -8.53415E-03 -9.60513E-01 -2.91273E-04 -4.00447E-04 -3.05162E-04  1.66329E-03  4.74791E+00 -3.74112E-04  2.70600E-05 -2.83027E-05  6.25857E-06  1.50000E+01
  2.03435E+01  2.01863E+01  2.01246E+01  2.36093E-01  9.83686E-01 -4.19944E-03 -6.93198E-01 -2.30943E-04 -3.89093E-04  1.29768E-04  2.92611E-03  3.27103E+00 -3.62085E-04  1.70661E-05 -9.74078E-06  4.06944E-06  1.50000E+01
  2.03244E+01  2.01940E+01  2.01100E+01  2.29490E-01  9.57120E-01 -4.28111E-03 -6.42851E-01 -2.17797E-04 -3.77091E-04  1.12309E-04  3.09635E-03  3.16053E+00 -4.03075E-04  1.65970E-05 -9.43519E-06  3.61429E-06  1.50000E+01
  2.05219E+01  2.00421E+01  1.99894E+01  3.67553E-01  1.22256E+00  3.14085E-04 -8.04507E-01 -2.84162E-04 -4.10782E-04 -1.03257E-05  2.35391E-03  3.71323E+00  3.14923E-05  1.43163E-05 -1.06416E-05 -7.29364E-08  1.50000E+01
  2.05059E+01  2.00545E+01  1.99759E+01  3.56965E-01  1.20333E+00  3.69226E-04 -7.87912E-01 -2.82252E-04 -4.10905E-04 -2.33291E-05  2.36966E-03  3.66385E+00  1.07479E-04  1.41780E-05 -1.04287E-05 -2.03816E-07  1.50000E+01
  2.05059E+01  2.00538E+01  2.00039E+01  3.57647E-01  1.20317E+00  4.33536E-04 -7.83806E-01 -2.81472E-04 -4.09482E-04  3.18512E-06  2.37663E-03  3.63640E+00  4.52063E-05  1.37801E-05 -1.01380E-05  1.80102E-08  1.50000E+01
  2.07633E+01  2.00334E+01  1.95891E+01  3.71666E-01  1.54843E+00 -6.77612E-03 -9.84602E-01 -2.62034E-04 -3.82588E-04 -3.26934E-04  1.77732E-03  4.88227E+00 -4.35336E-04  2.92634E-05 -2.96122E-05  5.90962E-06  1.50000E+01
  2.05013E+01  2.00956E+01  2.01792E+01  3.17579E-01  1.19748E+00 -1.38657E-04 -8.99890E-01 -2.73127E-04 -3.92401E-04  1.66532E-04  2.21672E-03  3.59342E+00 -2.31506E-04  1.77154E-05 -1.30202E-05  1.13830E-06  1.50000E+01
  2.04983E+01  2.00872E+01  2.01530E+01  3.26068E-01  1.19376E+00  1.87802E-05 -8.73051E-01 -2.70638E-04 -3.91725E-04  1.41021E-04  2.38253E-03  3.54650E+00 -4.98086E-05  1.68812E-05 -1.24535E-05  7.15342E-07  1.50000E+01
  2.03223E+01  2.01881E+01  2.00822E+01  2.36497E-01  9.56407E-01 -3.39965E-03 -6.61587E-01 -2.12678E-04 -3.70258E-04  8.24806E-05  3.32078E-03  3.16229E+00 -3.07056E-04  1.52399E-05 -9.02075E-06  2.44255E-06  1.50000E+01
  2.03728E+01  2.02096E+01  2.02186E+01  2.07383E-01  1.01462E+00 -4.99615E-03 -8.88247E-01 -2.42427E-04 -3.85168E-04  2.26754E-04  2.15975E-03  3.27056E+00 -5.29901E-04  2.03503E-05 -9.98256E-06  7.19811E-06  1.50000E+01
  2.03924E+01  2.02043E+01  2.02328E+01  2.12022E-01  1.04187E+00 -4.56804E-03 -9.26710E-01 -2.57470E-04 -3.98162E-04  2.46621E-04  2.14738E-03  3.33830E+00 -5.43591E-04  2.10066E-05 -1.09200E-05  6.62644E-06  1.50000E+01
  2.03884E+01  2.01923E+01  2.02073E+01  2.25349E-01  1.03970E+00 -4.44171E-03 -8.42018E-01 -2.44822E-04 -3.84195E-04  2.10835E-04  2.22582E-03  3.34482E+00 -4.40263E-04  1.94043E-05 -1.03978E-05  5.94741E-06  1.50000E+01
  2.01123E+01  2.03318E+01  2.01540E+01  7.19601E-02  5.97580E-01 -5.86869E-03 -4.57912E-01 -9.70351E-05 -2.66257E-04  1.18325E-04  4.54889E-03  1.85704E+00 -2.15244E-03  3.20701E-05 -1.46989E-05  3.75726E-06  1.50000E+01
  2.00952E+01  2.03457E+01  2.01652E+01  5.24957E-02  5.61565E-01 -4.80187E-03 -5.31965E-01 -1.04660E-04 -3.02439E-04  1.44751E-04  4.38424E-03  1.73307E+00 -2.87036E-03  3.60343E-05 -1.61311E-05  3.35873E-06  1.50000E+01