 TITLE="3D TRIANGULAR SURFACE DATA"
VARIABLES="X","Y","Z","U","V","W","P", "Fex", "Fey", "Fez","Finx","Finy","Finz","WSSx","WSSy","WSSz","AMForce"
 ZONE T="unstruc"N=        1757 E=        3355 F=FEPOINT  ET=TRIANGLE
  2.04431E+01  2.02283E+01  2.00983E+01  2.48367E-01  8.64052E-01 -1.03558E-02 -4.93706E-01 -6.46083E-05 -1.60275E-04  4.09931E-05  4.81129E-03  3.57638E+00 -1.15075E-03  1.48921E-05 -6.17965E-06  6.27582E-06  1.50000E+01
  2.04627E+01  2.02182E+01  2.00986E+01  2.59777E-01  8.93801E-01 -9.56892E-03 -4.73480E-01 -3.43483E-05 -8.13683E-05  2.03260E-05  3.18268E-03  1.73563E+00  8.57733E-04  7.11402E-06 -3.12470E-06  2.78341E-06  1.50000E+01
  2.04577E+01  2.02166E+01  2.00773E+01  2.62407E-01  8.88884E-01 -7.61740E-03 -4.78298E-01 -4.79811E-05 -1.13961E-04  2.25326E-05  1.14132E-03  2.54980E+00  9.37306E-04  9.51865E-06 -4.35440E-06  3.53811E-06  1.50000E+01
  2.04413E+01  2.02374E+01  2.01295E+01  2.35718E-01  8.56503E-01 -1.32695E-02 -4.83792E-01 -6.13507E-05 -1.50799E-04  5.04955E-05  2.16230E-03  2.98952E+00 -6.39555E-04  1.41333E-05 -5.05808E-06  7.37072E-06  1.50000E+01
  2.04597E+01  2.02250E+01  2.01197E+01  2.50549E-01  8.86457E-01 -1.19646E-02 -4.96866E-01 -5.58762E-05 -1.30361E-04  3.99030E-05  2.06141E-03  2.52539E+00 -1.22239E-03  1.10685E-05 -4.40946E-06  5.20495E-06  1.50000E+01
  2.04765E+01  2.02137E+01  2.01109E+01  2.63896E-01  9.13021E-01 -1.04517E-02 -4.78090E-01 -5.43815E-05 -1.21385E-04  3.36279E-05  2.26836E-03  2.23818E+00  1.82638E-04  9.12726E-06 -3.95650E-06  3.76015E-06  1.50000E+01
  2.04754E+01  2.02089E+01  2.00868E+01  2.70507E-01  9.14246E-01 -8.33306E-03 -4.78288E-01 -4.85690E-05 -1.09893E-04  2.33732E-05  2.62376E-03  2.25534E+00 -5.77926E-04  8.43941E-06 -3.95501E-06  2.87095E-06  1.50000E+01
  2.04548E+01  2.02141E+01  2.00501E+01  2.66191E-01  8.86519E-01 -5.16085E-03 -4.64640E-01 -4.37836E-05 -1.06686E-04  1.44338E-05  2.36812E-03  2.76954E+00 -2.00949E-04  9.18533E-06 -4.42788E-06  2.50938E-06  1.50000E+01
  2.04382E+01  2.02248E+01  2.00666E+01  2.53872E-01  8.60130E-01 -7.35152E-03 -4.85187E-01 -5.27365E-05 -1.30734E-04  2.33602E-05  3.09778E-03  3.02988E+00 -1.06780E-03  1.10292E-05 -4.94842E-06  3.85266E-06  1.50000E+01
  2.04360E+01  2.02224E+01  2.00376E+01  2.57484E-01  8.58634E-01 -4.29554E-03 -4.62884E-01 -3.67840E-05 -9.61793E-05  1.04915E-05  2.84298E-03  2.84310E+00 -4.43135E-04  9.35920E-06 -4.50174E-06  1.98520E-06  1.50000E+01
  2.04594E+01  2.02331E+01  2.01460E+01  2.39170E-01  8.81611E-01 -1.42091E-02 -5.13815E-01 -6.80088E-05 -1.56353E-04  5.77196E-05  1.75717E-03  2.70400E+00 -9.99858E-04  1.28630E-05 -4.51332E-06  6.85968E-06  1.50000E+01
  2.04766E+01  2.02206E+01  2.01354E+01  2.54342E-01  9.09725E-01 -1.27503E-02 -4.94783E-01 -7.08993E-05 -1.55943E-04  5.23777E-05  1.59561E-03  2.57159E+00 -6.45913E-04  1.15931E-05 -4.60522E-06  5.39986E-06  1.50000E+01
  2.04019E+01  2.02486E+01  2.00973E+01  2.25525E-01  8.00050E-01 -1.12641E-02 -4.62684E-01 -4.54107E-05 -1.24890E-04  3.29092E-05  3.01520E-03  2.83871E+00 -5.56496E-04  1.28405E-05 -4.92889E-06  5.56254E-06  1.50000E+01
  2.04004E+01  2.02436E+01  2.00682E+01  2.32869E-01  8.01568E-01 -8.22600E-03 -4.51234E-01 -4.46686E-05 -1.20121E-04  2.24986E-05  3.32069E-03  2.80228E+00 -3.67102E-04  1.10334E-05 -4.63637E-06  3.99274E-06  1.50000E+01
  2.03822E+01  2.02548E+01  2.00824E+01  2.19545E-01  7.71313E-01 -1.01713E-02 -4.03784E-01 -4.31998E-05 -1.20947E-04  2.71936E-05  3.28169E-03  2.63763E+00 -5.01062E-04  1.17730E-05 -4.60238E-06  4.69831E-06  1.50000E+01
  2.04220E+01  2.02424E+01  2.01127E+01  2.31337E-01  8.29249E-01 -1.22581E-02 -4.87368E-01 -5.38234E-05 -1.41399E-04  4.21848E-05  3.22634E-03  3.12307E+00 -6.34528E-04  1.44600E-05 -5.39141E-06  6.89730E-06  1.50000E+01
  2.04032E+01  2.02554E+01  2.01259E+01  2.15469E-01  7.97099E-01 -1.39662E-02 -4.60163E-01 -5.20391E-05 -1.39737E-04  4.76569E-05  2.73607E-03  2.75498E+00 -6.83748E-04  1.41896E-05 -4.62268E-06  7.76241E-06  1.50000E+01
  2.04228E+01  2.02505E+01  2.01415E+01  2.19607E-01  8.24936E-01 -1.47496E-02 -5.00302E-01 -6.24177E-05 -1.56190E-04  5.84278E-05  2.39581E-03  2.81107E+00 -5.90814E-04  1.45705E-05 -4.53599E-06  8.51578E-06  1.50000E+01
  2.04205E+01  2.02364E+01  2.00829E+01  2.40145E-01  8.31180E-01 -9.35111E-03 -4.54727E-01 -5.07112E-05 -1.32866E-04  2.95368E-05  3.35736E-03  3.14290E+00 -3.96935E-04  1.26651E-05 -5.28739E-06  5.01514E-06  1.50000E+01
  2.04184E+01  2.02327E+01  2.00532E+01  2.45573E-01  8.30801E-01 -6.28380E-03 -4.46977E-01 -4.30832E-05 -1.12420E-04  1.66747E-05  3.02261E-03  2.87994E+00 -4.34824E-04  1.01600E-05 -4.58972E-06  2.91745E-06  1.50000E+01
  2.04922E+01  2.02025E+01  2.00991E+01  2.76969E-01  9.37790E-01 -9.09532E-03 -4.76120E-01 -6.54738E-05 -1.41970E-04  3.41327E-05  2.04769E-03  2.53579E+00 -3.61535E-04  9.84523E-06 -4.57999E-06  3.47346E-06  1.50000E+01
  2.04908E+01  2.01982E+01  2.00734E+01  2.82783E-01  9.38246E-01 -6.81643E-03 -4.68696E-01 -5.90362E-05 -1.30169E-04  2.33847E-05  2.43806E-03  2.63014E+00 -4.42166E-04  9.30664E-06 -4.55544E-06  2.87233E-06  1.50000E+01
  2.04932E+01  2.02082E+01  2.01244E+01  2.69002E-01  9.36320E-01 -1.12145E-02 -4.92420E-01 -7.43661E-05 -1.59227E-04  4.80484E-05  2.14402E-03  2.60204E+00 -1.17121E-04  1.09253E-05 -4.75932E-06  4.37965E-06  1.50000E+01
  2.04731E+01  2.02060E+01  2.00616E+01  2.74619E-01  9.13042E-01 -5.89388E-03 -4.82392E-01 -5.09456E-05 -1.16460E-04  1.82516E-05  1.42976E-03  2.62061E+00  1.10629E-04  8.91864E-06 -4.35912E-06  2.71827E-06  1.50000E+01
  2.04894E+01  2.01955E+01  2.00469E+01  2.86654E-01  9.37977E-01 -4.26528E-03 -4.36359E-01 -4.81797E-05 -1.10232E-04  1.31929E-05  2.17581E-03  2.77265E+00  5.60329E-06  8.94621E-06 -4.59087E-06  2.03608E-06  1.50000E+01
  2.04172E+01  2.02307E+01  2.00242E+01  2.48620E-01  8.30364E-01 -3.06539E-03 -4.01528E-01 -2.04968E-05 -6.40326E-05  5.32169E-06  3.20266E-03  2.76863E+00 -2.94627E-04  8.95491E-06 -4.28256E-06  1.29740E-06  1.50000E+01
  2.04533E+01  2.02125E+01  2.00220E+01  2.68648E-01  8.85424E-01 -2.32105E-03 -4.20948E-01 -2.58140E-05 -7.12867E-05  5.01680E-06  2.85009E-03  2.81133E+00 -1.60057E-04  8.65094E-06 -4.35436E-06  1.22297E-06  1.50000E+01
  2.04350E+01  2.02213E+01  2.00089E+01  2.59178E-01  8.57863E-01 -1.15754E-03 -4.32767E-01 -1.82547E-05 -5.80333E-05  1.92862E-06  3.15756E-03  2.78649E+00 -1.86871E-04  8.70035E-06 -4.30920E-06  5.40876E-07  1.50000E+01
  2.04047E+01  2.02637E+01  2.01535E+01  2.03189E-01  7.93122E-01 -1.62128E-02 -5.45138E-01 -6.71217E-05 -1.68684E-04  6.87103E-05  2.50463E-03  2.63317E+00 -7.26481E-04  1.48127E-05 -3.93922E-06  9.36351E-06  1.50000E+01
  2.04241E+01  2.02596E+01  2.01687E+01  2.06422E-01  8.20644E-01 -1.67682E-02 -5.51504E-01 -7.57675E-05 -1.80197E-04  7.86946E-05  2.37942E-03  2.66768E+00 -7.60735E-04  1.47387E-05 -3.69444E-06  9.67425E-06  1.50000E+01
  2.07826E+01  2.01295E+01  1.96665E+01  3.55208E-01  1.35048E+00  2.16098E-02 -7.75835E-01 -1.43355E-04 -2.89132E-04 -1.85724E-04  2.11610E-03  4.25029E+00 -4.43643E-04  2.61174E-05 -1.61680E-05  8.15567E-08  1.50000E+01
  2.07637E+01  2.01312E+01  1.96818E+01  3.51503E-01  1.32189E+00  1.89973E-02 -8.14779E-01 -1.53110E-04 -2.93545E-04 -1.80998E-04  1.93129E-03  4.15669E+00 -4.15399E-04  2.49790E-05 -1.56091E-05 -4.46614E-07  1.50000E+01
  2.07785E+01  2.01146E+01  1.96932E+01  3.74190E-01  1.34574E+00  2.00227E-02 -7.60202E-01 -1.44571E-04 -2.90736E-04 -1.68132E-04  2.10048E-03  4.23144E+00 -4.17852E-04  2.51685E-05 -1.62582E-05  1.14101E-06  1.50000E+01
  2.07599E+01  2.01170E+01  1.97087E+01  3.69708E-01  1.31773E+00  1.76204E-02 -7.79979E-01 -1.54508E-04 -2.96050E-04 -1.63865E-04  1.94555E-03  4.14053E+00 -3.80485E-04  2.41891E-05 -1.55546E-05  3.79192E-07  1.50000E+01
  2.07748E+01  2.01009E+01  1.97205E+01  3.91669E-01  1.34137E+00  1.83235E-02 -7.35888E-01 -1.43442E-04 -2.88235E-04 -1.49363E-04  2.08952E-03  4.21424E+00 -3.90593E-04  2.47164E-05 -1.61651E-05  1.64278E-06  1.50000E+01
  2.08407E+01  2.01290E+01  1.96218E+01  3.63293E-01  1.44105E+00  3.35254E-02 -4.98616E-01 -4.45161E-05 -1.66318E-04 -1.14479E-04  2.92882E-03  4.54592E+00  1.13721E-04  3.31778E-05 -1.93342E-05  2.52754E-06  1.50000E+01
  2.08211E+01  2.01283E+01  1.96364E+01  3.61332E-01  1.41016E+00  2.89131E-02 -6.49733E-01 -9.79616E-05 -2.43858E-04 -1.68363E-04  2.69066E-03  4.44540E+00 -1.53952E-04  2.97503E-05 -1.80834E-05  1.93771E-06  1.50000E+01
  2.08358E+01  2.01120E+01  1.96476E+01  3.85107E-01  1.43451E+00  3.10919E-02 -4.34727E-01 -4.71653E-05 -1.68429E-04 -1.03913E-04  2.87061E-03  4.52345E+00  1.00985E-05  3.27310E-05 -1.99741E-05  3.37396E-06  1.50000E+01
  2.04944E+01  2.02155E+01  2.01499E+01  2.58907E-01  9.34387E-01 -1.33018E-02 -5.06295E-01 -8.10929E-05 -1.72671E-04  6.25969E-05  2.12541E-03  2.72380E+00 -5.38817E-04  1.24056E-05 -4.92521E-06  5.69850E-06  1.50000E+01
  2.08313E+01  2.00960E+01  1.96740E+01  4.05347E-01  1.42834E+00  2.85141E-02 -4.56104E-01 -6.53090E-05 -1.91592E-04 -1.10148E-04  2.84634E-03  4.50226E+00 -5.36417E-05  2.93532E-05 -1.85975E-05  3.88702E-06  1.50000E+01
  2.08506E+01  2.00960E+01  1.96590E+01  4.08536E-01  1.45854E+00  3.30182E-02 -1.64881E-01 -7.75919E-06 -9.79905E-05 -4.85691E-05  3.01235E-03  4.60093E+00  1.19746E-04  3.15234E-05 -1.97856E-05  5.14117E-06  1.50000E+01
  2.05063E+01  2.01851E+01  2.00325E+01  2.98377E-01  9.63106E-01 -2.71450E-03 -4.50911E-01 -5.93741E-05 -1.28593E-04  1.00649E-05  2.61149E-03  2.88052E+00  2.98535E-05  8.70131E-06 -4.63748E-06  1.34899E-06  1.50000E+01
  2.04886E+01  2.01940E+01  2.00196E+01  2.88948E-01  9.37663E-01 -1.62291E-03 -4.14824E-01 -3.85947E-05 -9.21020E-05  4.82197E-06  2.68068E-03  2.84687E+00  9.78422E-05  8.53548E-06 -4.51808E-06  9.58995E-07  1.50000E+01
  2.04418E+01  2.02462E+01  2.01572E+01  2.23159E-01  8.51716E-01 -1.54913E-02 -5.56244E-01 -7.17485E-05 -1.68951E-04  6.80551E-05  2.07974E-03  2.75289E+00 -7.19793E-04  1.41582E-05 -4.31215E-06  8.36195E-06  1.50000E+01
  2.04434E+01  2.02557E+01  2.01836E+01  2.09455E-01  8.47770E-01 -1.72296E-02 -5.63960E-01 -7.95518E-05 -1.82251E-04  8.54413E-05  2.54399E-03  2.68343E+00 -8.73070E-04  1.46762E-05 -3.56435E-06  9.70095E-06  1.50000E+01
  2.04606E+01  2.02420E+01  2.01723E+01  2.26558E-01  8.77983E-01 -1.60705E-02 -5.60229E-01 -7.63811E-05 -1.72323E-04  7.45424E-05  2.30583E-03  2.71683E+00 -8.93163E-04  1.39540E-05 -4.14718E-06  8.34276E-06  1.50000E+01
  2.04166E+01  2.02303E+01  1.99956E+01  2.49331E-01  8.29775E-01  2.40940E-04 -3.87571E-01 -1.06197E-05 -4.29026E-05 -6.97887E-07  3.28246E-03  2.70713E+00 -1.14258E-04  8.50322E-06 -4.12800E-06 -1.75821E-07  1.50000E+01
  2.04528E+01  2.02123E+01  1.99938E+01  2.69174E-01  8.84682E-01  6.64933E-04 -4.10562E-01 -1.99262E-05 -5.94817E-05 -1.26061E-06  3.18755E-03  2.80486E+00 -1.09549E-05  8.40983E-06 -4.27019E-06 -3.45840E-07  1.50000E+01
  2.04347E+01  2.02218E+01  1.99806E+01  2.58654E-01  8.57037E-01  2.01654E-03 -4.43770E-01 -2.35260E-05 -6.81892E-05 -4.04478E-06  3.26243E-03  2.74748E+00  7.17836E-07  8.56720E-06 -4.22538E-06 -9.04487E-07  1.50000E+01
  2.07866E+01  2.00732E+01  1.97609E+01  4.28618E-01  1.36089E+00  1.69821E-02 -7.00448E-01 -1.22794E-04 -2.64278E-04 -1.12154E-04  2.24259E-03  4.27238E+00 -3.31291E-04  2.61366E-05 -1.68204E-05  2.51726E-06  1.50000E+01
  2.08049E+01  2.00701E+01  1.97449E+01  4.35035E-01  1.38874E+00  1.97975E-02 -6.88784E-01 -9.13519E-05 -2.23156E-04 -9.81946E-05  2.47203E-03  4.36678E+00 -2.79419E-04  2.86473E-05 -1.82625E-05  3.30071E-06  1.50000E+01
  2.07898E+01  2.00853E+01  1.97326E+01  4.13460E-01  1.36504E+00  1.90738E-02 -7.29748E-01 -1.20391E-04 -2.61278E-04 -1.25614E-04  2.26308E-03  4.28920E+00 -3.55056E-04  2.66289E-05 -1.72775E-05  2.53367E-06  1.50000E+01
  2.05096E+01  2.01960E+01  2.01123E+01  2.83352E-01  9.62193E-01 -9.80020E-03 -4.89726E-01 -7.90142E-05 -1.66452E-04  4.42691E-05  2.38116E-03  2.75829E+00 -3.00452E-04  1.10910E-05 -5.15735E-06  3.88423E-06  1.50000E+01
  2.01407E+01  2.03846E+01  2.01902E+01  3.38888E-02  2.90822E-01 -1.39523E-02 -5.09670E-01 -3.13832E-05 -2.22607E-04  1.08403E-04  3.62907E-03  9.25936E-01 -5.80073E-03  3.28734E-05 -5.80467E-06  8.19198E-06  1.50000E+01
  2.01217E+01  2.03950E+01  2.02012E+01  1.28319E-02  2.32905E-01 -8.24021E-03 -6.43735E-01 -1.86670E-05 -2.60376E-04  1.25171E-04  2.18964E-03  7.44076E-01 -5.62201E-03  4.87536E-05 -9.27243E-06  7.30877E-06  1.50000E+01
  2.01424E+01  2.03956E+01  2.02141E+01  1.15545E-02  2.65330E-01 -8.20704E-03 -7.01244E-01 -3.88417E-05 -3.04692E-04  1.56861E-04  2.44873E-03  8.46498E-01 -5.20551E-03  4.64007E-05 -9.07438E-06  7.92251E-06  1.50000E+01
  2.08421E+01  2.00661E+01  1.97133E+01  4.46257E-01  1.44628E+00  2.69437E-02 -6.00455E-01 -2.74810E-06 -8.96113E-05 -3.39185E-05  2.98700E-03  4.55926E+00 -5.01210E-05  3.57357E-05 -2.26032E-05  6.50005E-06  1.50000E+01
  2.08612E+01  2.00654E+01  1.96978E+01  4.50686E-01  1.47568E+00  3.11726E-02 -1.59193E-01 -5.45291E-06 -6.10198E-05 -2.57493E-05  2.86120E-02  2.38009E+00  5.44556E-03  1.90702E-05 -1.20323E-05  3.88452E-06  1.50000E+01
  2.08462E+01  2.00805E+01  1.96858E+01  4.28232E-01  1.45219E+00  3.00102E-02 -4.30727E-01 -3.47489E-05 -1.49740E-04 -7.46258E-05  3.03121E-03  4.57956E+00  5.69146E-05  3.20901E-05 -2.05505E-05  5.98176E-06  1.50000E+01
  2.07934E+01  2.00985E+01  1.97049E+01  3.96698E-01  1.36961E+00  2.11107E-02 -7.09432E-01 -1.25114E-04 -2.70772E-04 -1.46383E-04  2.28351E-03  4.30693E+00 -3.66340E-04  2.66184E-05 -1.73429E-05  2.42333E-06  1.50000E+01
  2.08084E+01  2.00829E+01  1.97169E+01  4.18987E-01  1.39348E+00  2.21804E-02 -7.24750E-01 -9.43826E-05 -2.28958E-04 -1.14324E-04  2.51191E-03  4.38443E+00 -2.72157E-04  2.85253E-05 -1.83514E-05  3.33672E-06  1.50000E+01
  2.04165E+01  2.02315E+01  1.99674E+01  2.47666E-01  8.28780E-01  3.54608E-03 -4.18900E-01 -2.50665E-05 -7.31074E-05 -7.14475E-06  3.18895E-03  2.66685E+00  7.88211E-05  8.82297E-06 -4.16171E-06 -1.60491E-06  1.50000E+01
  2.03992E+01  2.02406E+01  2.00392E+01  2.37450E-01  8.02024E-01 -4.99484E-03 -4.24982E-01 -3.19327E-05 -9.07454E-05  1.06159E-05  3.31302E-03  2.71748E+00 -3.27269E-04  9.57586E-06 -4.37006E-06  2.05755E-06  1.50000E+01
  2.03984E+01  2.02392E+01  2.00105E+01  2.39503E-01  8.01925E-01 -1.61173E-03 -3.98970E-01 -1.23022E-05 -4.82426E-05  1.98770E-06  3.33652E-03  2.65432E+00 -1.95222E-04  8.82425E-06 -4.16906E-06  5.62498E-07  1.50000E+01
  2.08261E+01  2.01456E+01  1.96110E+01  3.39066E-01  1.41648E+00  3.08846E-02 -6.94233E-01 -1.04901E-04 -2.60910E-04 -1.98881E-04  2.79246E-03  4.46748E+00 -5.96735E-05  2.96268E-05 -1.73658E-05  1.43011E-06  1.50000E+01
  2.07565E+01  2.01039E+01  1.97363E+01  3.86403E-01  1.31390E+00  1.61240E-02 -7.46517E-01 -1.53460E-04 -2.94599E-04 -1.45680E-04  1.94755E-03  4.12353E+00 -3.46695E-04  2.37963E-05 -1.53866E-05  7.56488E-07  1.50000E+01
  2.07715E+01  2.00883E+01  1.97484E+01  4.07591E-01  1.33736E+00  1.65362E-02 -7.35839E-01 -1.40770E-04 -2.83553E-04 -1.30333E-04  2.06016E-03  4.19696E+00 -3.62165E-04  2.43940E-05 -1.58058E-05  1.62811E-06  1.50000E+01
  2.03810E+01  2.02507E+01  2.00538E+01  2.25683E-01  7.72821E-01 -6.94627E-03 -3.95553E-01 -3.97629E-05 -1.09884E-04  1.66427E-05  3.49379E-03  2.61529E+00 -3.53750E-04  1.00537E-05 -4.29630E-06  2.88283E-06  1.50000E+01
  2.03619E+01  2.02580E+01  2.00396E+01  2.18260E-01  7.44245E-01 -5.49208E-03 -3.53080E-01 -3.30214E-05 -9.72827E-05  1.13630E-05  3.60576E-03  2.47109E+00 -3.06571E-04  9.42405E-06 -4.06922E-06  2.03352E-06  1.50000E+01
  2.03628E+01  2.02612E+01  2.00679E+01  2.13343E-01  7.42823E-01 -8.93728E-03 -3.87754E-01 -4.48288E-05 -1.26875E-04  2.38635E-05  3.56963E-03  2.48624E+00 -4.79303E-04  1.10158E-05 -4.38213E-06  3.80007E-06  1.50000E+01
  2.05084E+01  2.01909E+01  2.00861E+01  2.90279E-01  9.62913E-01 -7.62862E-03 -4.55087E-01 -7.32104E-05 -1.55361E-04  3.17328E-05  2.41492E-03  2.76418E+00 -3.02516E-04  1.00970E-05 -4.97595E-06  3.00642E-06  1.50000E+01
  2.05072E+01  2.01873E+01  2.00595E+01  2.95275E-01  9.63168E-01 -5.26341E-03 -4.94148E-01 -6.49723E-05 -1.39620E-04  2.00358E-05  2.63388E-03  2.82220E+00 -2.48173E-04  9.27649E-06 -4.77963E-06  2.24638E-06  1.50000E+01
  2.05233E+01  2.01750E+01  2.00182E+01  3.09655E-01  9.88026E-01 -1.28439E-03 -3.84418E-01 -8.08206E-05 -1.65553E-04  6.92631E-06  2.73285E-03  2.97097E+00  5.02514E-05  8.87763E-06 -4.87432E-06  7.64643E-07  1.50000E+01
  2.05058E+01  2.01843E+01  2.00051E+01  2.99646E-01  9.62884E-01 -1.16447E-04 -4.25644E-01 -5.87401E-05 -1.26878E-04  1.37724E-06  2.81192E-03  2.91722E+00  1.45721E-04  8.34436E-06 -4.53015E-06  1.72152E-07  1.50000E+01
  2.08122E+01  2.00969E+01  1.96894E+01  4.01328E-01  1.39864E+00  2.45165E-02 -6.16291E-01 -1.01435E-04 -2.43221E-04 -1.36965E-04  2.55753E-03  4.40380E+00 -2.48799E-04  2.82447E-05 -1.82777E-05  3.29699E-06  1.50000E+01
  2.08165E+01  2.01120E+01  1.96626E+01  3.82099E-01  1.40421E+00  2.67745E-02 -6.12235E-01 -1.02075E-04 -2.49090E-04 -1.55708E-04  2.62845E-03  4.42471E+00 -2.07232E-04  2.95873E-05 -1.86260E-05  2.66415E-06  1.50000E+01
  2.07451E+01  2.01335E+01  1.96972E+01  3.47601E-01  1.29410E+00  1.70140E-02 -8.12953E-01 -1.58815E-04 -2.94624E-04 -1.73770E-04  1.86030E-03  4.06678E+00 -3.19583E-04  2.36832E-05 -1.46998E-05 -1.07909E-06  1.50000E+01
  2.03851E+01  2.02680E+01  2.01385E+01  1.99652E-01  7.65169E-01 -1.55885E-02 -4.94050E-01 -5.58055E-05 -1.50981E-04  5.65277E-05  2.86401E-03  2.55449E+00 -7.87202E-04  1.46609E-05 -4.28993E-06  8.28835E-06  1.50000E+01
  2.03672E+01  2.02807E+01  2.01508E+01  1.83460E-01  7.32590E-01 -1.71040E-02 -5.07867E-01 -6.16350E-05 -1.67656E-04  6.82870E-05  2.96753E-03  2.41232E+00 -9.83079E-04  1.54950E-05 -4.00439E-06  8.94823E-06  1.50000E+01
  2.03869E+01  2.02768E+01  2.01655E+01  1.86404E-01  7.60709E-01 -1.75803E-02 -5.32239E-01 -7.21986E-05 -1.82853E-04  8.05411E-05  2.75616E-03  2.49543E+00 -9.30452E-04  1.51932E-05 -3.32414E-06  1.02527E-05  1.50000E+01
  2.08271E+01  2.00813E+01  1.97012E+01  4.23981E-01  1.42258E+00  2.58460E-02 -6.15399E-01 -6.28410E-05 -1.85972E-04 -9.50870E-05  2.79567E-03  4.48181E+00 -1.17892E-04  2.98313E-05 -1.90119E-05  4.24909E-06  1.50000E+01
  2.07679E+01  2.01465E+01  1.96554E+01  3.31849E-01  1.32639E+00  2.02328E-02 -8.58511E-01 -1.63808E-04 -3.09998E-04 -2.11494E-04  1.95286E-03  4.17450E+00 -4.34713E-04  2.55467E-05 -1.53642E-05 -1.31444E-06  1.50000E+01
  2.07490E+01  2.01481E+01  1.96706E+01  3.28667E-01  1.29804E+00  1.80871E-02 -8.54665E-01 -1.68212E-04 -3.07825E-04 -2.01146E-04  1.83825E-03  4.08202E+00 -3.42764E-04  2.46641E-05 -1.48648E-05 -1.82789E-06  1.50000E+01
  2.04626E+01  2.02520E+01  2.01982E+01  2.12357E-01  8.74661E-01 -1.75172E-02 -5.69526E-01 -8.28939E-05 -1.84315E-04  9.18738E-05  2.82405E-03  2.72243E+00 -9.54402E-04  1.50450E-05 -3.61668E-06  9.87006E-06  1.50000E+01
  2.04794E+01  2.02379E+01  2.01870E+01  2.29969E-01  9.04190E-01 -1.63912E-02 -5.45152E-01 -8.10922E-05 -1.76915E-04  8.20592E-05  2.68295E-03  2.76087E+00 -8.80044E-04  1.43310E-05 -4.27167E-06  8.44098E-06  1.50000E+01
  2.04455E+01  2.02664E+01  2.02094E+01  1.94078E-01  8.43792E-01 -1.84666E-02 -5.94373E-01 -8.94973E-05 -2.00587E-04  1.06785E-04  2.79204E-03  2.66584E+00 -1.02627E-03  1.57679E-05 -3.09388E-06  1.08523E-05  1.50000E+01
  2.04527E+01  2.02136E+01  1.99658E+01  2.67489E-01  8.83744E-01  3.66592E-03 -4.40632E-01 -3.33857E-05 -8.66945E-05 -8.35017E-06  3.25928E-03  2.79015E+00  1.41338E-04  8.80617E-06 -4.34816E-06 -1.71863E-06  1.50000E+01
  2.08017E+01  2.01285E+01  1.96513E+01  3.58556E-01  1.37993E+00  2.49154E-02 -7.20514E-01 -1.28440E-04 -2.79285E-04 -1.86714E-04  2.38911E-03  4.34720E+00 -3.55197E-04  2.79230E-05 -1.73034E-05  1.10737E-06  1.50000E+01
  2.08064E+01  2.01451E+01  1.96255E+01  3.37260E-01  1.38564E+00  2.66178E-02 -7.50481E-01 -1.34463E-04 -2.92224E-04 -2.15655E-04  2.46896E-03  4.36711E+00 -3.14914E-04  2.80568E-05 -1.67489E-05  4.81715E-07  1.50000E+01
  2.07870E+01  2.01454E+01  1.96403E+01  3.34775E-01  1.35559E+00  2.30599E-02 -8.38335E-01 -1.54710E-04 -3.07853E-04 -2.19209E-04  2.17552E-03  4.26996E+00 -4.33637E-04  2.67895E-05 -1.59551E-05 -6.98706E-07  1.50000E+01
  2.07303E+01  2.01503E+01  1.96859E+01  3.25346E-01  1.27041E+00  1.65251E-02 -8.83162E-01 -1.69495E-04 -3.03884E-04 -1.90521E-04  1.83093E-03  3.99313E+00 -2.10078E-04  2.33691E-05 -1.38433E-05 -2.49699E-06  1.50000E+01
  2.05274E+01  2.01896E+01  2.01260E+01  2.89602E-01  9.87115E-01 -1.04160E-02 -5.51722E-01 -8.86158E-05 -1.82651E-04  5.33001E-05  2.69991E-03  2.90641E+00 -3.10587E-04  1.19212E-05 -5.56656E-06  4.16079E-06  1.50000E+01
  2.05110E+01  2.02025E+01  2.01383E+01  2.74459E-01  9.61078E-01 -1.18184E-02 -5.39614E-01 -8.56977E-05 -1.78952E-04  5.86449E-05  2.58710E-03  2.80273E+00 -2.66232E-04  1.20859E-05 -5.21842E-06  4.97449E-06  1.50000E+01
  2.03836E+01  2.02606E+01  2.01108E+01  2.10801E-01  7.68771E-01 -1.30884E-02 -4.52589E-01 -4.51845E-05 -1.28270E-04  3.89377E-05  3.08279E-03  2.61446E+00 -6.38535E-04  1.35678E-05 -4.70907E-06  6.43904E-06  1.50000E+01
  2.03640E+01  2.02661E+01  2.00960E+01  2.05795E-01  7.40409E-01 -1.20922E-02 -4.03660E-01 -4.85912E-05 -1.37776E-04  3.60298E-05  3.36395E-03  2.48075E+00 -6.39651E-04  1.27626E-05 -4.63139E-06  5.30600E-06  1.50000E+01
  2.01232E+01  2.04061E+01  2.02248E+01 -1.05020E-02  2.02006E-01  0.00000E+00 -3.91700E-01 -5.89490E-06 -1.39866E-04  6.96782E-05  8.47673E-01 -9.27044E+00 -1.80533E+01  2.93305E-05 -6.14858E-06  2.65676E-06  1.50000E+01
  2.08703E+01  2.00969E+01  1.96442E+01  4.10742E-01  1.48905E+00  3.79292E-02  5.73123E-02  1.89532E-05 -7.00782E-06  6.11578E-06  2.74275E-02  2.40368E+00  7.09227E-03  1.68318E-05 -1.01938E-05  2.62748E-06  1.50000E+01
  2.08555E+01  2.01127E+01  1.96329E+01  3.87193E-01  1.46527E+00  3.59092E-02 -1.42483E-02  1.98324E-05 -5.53946E-05 -1.96608E-05  3.00327E-03  4.62361E+00  2.04553E-04  3.58972E-05 -2.19154E-05  5.05120E-06  1.50000E+01
  2.07533E+01  2.01638E+01  1.96446E+01  3.08334E-01  1.30228E+00  1.89913E-02 -9.03311E-01 -1.79520E-04 -3.24251E-04 -2.32752E-04  1.84505E-03  4.09897E+00 -3.59439E-04  2.51509E-05 -1.45233E-05 -2.68726E-06  1.50000E+01
  2.07343E+01  2.01654E+01  1.96596E+01  3.05681E-01  1.27409E+00  1.73119E-02 -8.95599E-01 -1.77794E-04 -3.14936E-04 -2.17218E-04  1.79353E-03  4.00745E+00 -2.27461E-04  2.43802E-05 -1.39978E-05 -3.21257E-06  1.50000E+01
  2.03982E+01  2.02395E+01  1.99822E+01  2.39077E-01  8.01271E-01  1.83342E-03 -4.00275E-01 -1.47405E-05 -5.29375E-05 -3.21426E-06  3.25223E-03  2.60673E+00 -5.01600E-06  8.67985E-06 -4.09144E-06 -8.95780E-07  1.50000E+01
  2.05126E+01  2.02103E+01  2.01642E+01  2.63589E-01  9.59756E-01 -1.36888E-02 -5.20955E-01 -8.99894E-05 -1.86891E-04  7.26739E-05  2.52089E-03  2.85378E+00 -4.95545E-04  1.32006E-05 -5.27942E-06  5.90509E-06  1.50000E+01
  2.04065E+01  2.02732E+01  2.01802E+01  1.89125E-01  7.88625E-01 -1.79673E-02 -5.65777E-01 -7.95310E-05 -1.91814E-04  9.04704E-05  2.62845E-03  2.56029E+00 -9.09710E-04  1.52401E-05 -2.97375E-06  1.09325E-05  1.50000E+01
  2.04261E+01  2.02697E+01  2.01949E+01  1.91676E-01  8.16301E-01 -1.82772E-02 -6.04370E-01 -8.38359E-05 -1.95033E-04  9.81229E-05  2.64427E-03  2.61232E+00 -9.65230E-04  1.55108E-05 -2.89853E-06  1.11823E-05  1.50000E+01
  2.01595E+01  2.03738E+01  2.01790E+01  5.39413E-02  3.41935E-01 -1.71901E-02 -3.78747E-01 -2.38051E-05 -1.68867E-04  7.90994E-05  3.80099E-03  1.08633E+00 -4.55317E-03  2.82062E-05 -5.74827E-06  7.09774E-06  1.50000E+01
  2.01391E+01  2.03746E+01  2.01659E+01  5.38936E-02  3.11210E-01 -1.67564E-02 -3.83242E-01 -1.60864E-05 -1.56336E-04  6.72827E-05  4.08920E-03  9.85679E-01 -4.88387E-03  2.95540E-05 -6.55773E-06  5.66493E-06  1.50000E+01
  2.08115E+01  2.01627E+01  1.96003E+01  3.14539E-01  1.39170E+00  2.81328E-02 -7.81495E-01 -1.43931E-04 -3.14472E-04 -2.54873E-04  2.58757E-03  4.38867E+00 -2.40472E-04  2.92457E-05 -1.66243E-05 -1.77836E-07  1.50000E+01
  2.03429E+01  2.02654E+01  2.00257E+01  2.10477E-01  7.15483E-01 -3.85951E-03 -2.96663E-01 -3.98952E-05 -1.14653E-04  8.41865E-06  3.62575E-03  2.34584E+00 -2.17912E-04  8.98919E-06 -3.85377E-06  1.34461E-06  1.50000E+01
  2.03435E+01  2.02677E+01  2.00537E+01  2.06789E-01  7.14276E-01 -7.52840E-03 -3.76929E-01 -4.29895E-05 -1.23672E-04  1.83260E-05  3.66067E-03  2.35637E+00 -4.37754E-04  1.01669E-05 -4.12055E-06  2.67102E-06  1.50000E+01
  2.05260E+01  2.01838E+01  2.00995E+01  2.97484E-01  9.87710E-01 -8.37218E-03 -5.15811E-01 -8.23728E-05 -1.71310E-04  3.96048E-05  2.64638E-03  2.89648E+00 -2.76754E-04  1.09399E-05 -5.39072E-06  3.34405E-06  1.50000E+01
  2.05249E+01  2.01795E+01  2.00727E+01  3.03452E-01  9.88042E-01 -6.15321E-03 -4.90594E-01 -7.40961E-05 -1.56108E-04  2.66322E-05  2.66304E-03  2.91051E+00 -2.10874E-04  1.01915E-05 -5.25696E-06  2.53843E-06  1.50000E+01
  2.03691E+01  2.02901E+01  2.01773E+01  1.69067E-01  7.27304E-01 -1.87639E-02 -5.31663E-01 -7.31278E-05 -1.89610E-04  9.00695E-05  2.77563E-03  2.37344E+00 -1.11240E-03  1.59034E-05 -2.76971E-06  1.12439E-05  1.50000E+01
  2.03514E+01  2.03036E+01  2.01891E+01  1.51135E-01  6.92734E-01 -1.96848E-02 -5.34414E-01 -7.16191E-05 -1.92107E-04  9.77586E-05  2.76602E-03  2.24953E+00 -1.30719E-03  1.67455E-05 -2.32657E-06  1.19386E-05  1.50000E+01
  2.03713E+01  2.03008E+01  2.02033E+01  1.52740E-01  7.21213E-01 -1.97660E-02 -5.84548E-01 -8.18720E-05 -2.07018E-04  1.11733E-04  2.64559E-03  2.33682E+00 -1.25216E-03  1.70794E-05 -2.15346E-06  1.24449E-05  1.50000E+01
  2.07155E+01  2.01675E+01  1.96748E+01  3.02921E-01  1.24653E+00  1.61496E-02 -8.80449E-01 -1.76214E-04 -3.08910E-04 -2.04797E-04  1.83027E-03  3.91908E+00 -7.85792E-05  2.34539E-05 -1.33559E-05 -3.53942E-06  1.50000E+01
  2.03802E+01  2.02484E+01  2.00252E+01  2.29158E-01  7.73440E-01 -3.51888E-03 -3.99309E-01 -2.11445E-05 -6.76466E-05  5.76972E-06  3.48901E-03  2.57471E+00 -2.35263E-04  8.87985E-06 -4.03939E-06  1.32334E-06  1.50000E+01
  2.03798E+01  2.02478E+01  1.99969E+01  2.30041E-01  7.73278E-01  2.82239E-05 -3.85664E-01 -9.89914E-06 -4.26939E-05 -4.05843E-07  3.35796E-03  2.53507E+00 -6.76759E-05  8.44902E-06 -3.91435E-06 -1.61496E-07  1.50000E+01
  2.05239E+01  2.01765E+01  2.00456E+01  3.07516E-01  9.88130E-01 -3.77384E-03 -4.19273E-01 -7.34381E-05 -1.53536E-04  1.62821E-05  2.75309E-03  2.94064E+00 -1.17091E-04  9.44863E-06 -5.05925E-06  1.75296E-06  1.50000E+01
  2.07918E+01  2.01623E+01  1.96148E+01  3.12939E-01  1.36104E+00  2.43397E-02 -8.25604E-01 -1.64966E-04 -3.28090E-04 -2.55579E-04  2.24742E-03  4.28907E+00 -4.07876E-04  2.78427E-05 -1.60068E-05 -1.18738E-06  1.50000E+01
  2.07724E+01  2.01628E+01  1.96296E+01  3.10802E-01  1.33124E+00  2.13043E-02 -8.84297E-01 -1.76606E-04 -3.30068E-04 -2.46876E-04  2.00285E-03  4.19313E+00 -4.31952E-04  2.61123E-05 -1.51015E-05 -1.99026E-06  1.50000E+01
  2.03655E+01  2.02727E+01  2.01237E+01  1.95767E-01  7.36991E-01 -1.48492E-02 -4.08878E-01 -4.87937E-05 -1.40823E-04  4.75684E-05  3.15409E-03  2.45212E+00 -8.07066E-04  1.46358E-05 -4.65711E-06  7.16951E-06  1.50000E+01
  2.03459E+01  2.02775E+01  2.01091E+01  1.91538E-01  7.08687E-01 -1.39654E-02 -3.55231E-01 -5.10597E-05 -1.48753E-04  4.43478E-05  3.34691E-03  2.34175E+00 -8.36853E-04  1.41803E-05 -4.60060E-06  6.54087E-06  1.50000E+01
  2.05574E+01  2.01556E+01  1.99895E+01  3.30935E-01  1.03717E+00  1.18464E-03 -5.17937E-01 -9.87422E-05 -1.95294E-04 -4.96358E-06  2.72882E-03  3.15089E+00  6.33585E-05  9.56930E-06 -5.40876E-06 -4.37922E-07  1.50000E+01
  2.05403E+01  2.01658E+01  1.99760E+01  3.19667E-01  1.01249E+00  2.41035E-03 -4.62951E-01 -9.10963E-05 -1.83357E-04 -1.05257E-05  2.76112E-03  3.08357E+00  1.40768E-04  9.55692E-06 -5.29946E-06 -1.05752E-06  1.50000E+01
  2.05403E+01  2.01652E+01  2.00039E+01  3.20493E-01  1.01270E+00  1.21167E-05 -4.58901E-01 -9.23695E-05 -1.85195E-04  1.42721E-06  2.73965E-03  3.06149E+00  5.42622E-05  9.21637E-06 -5.15756E-06  1.47048E-07  1.50000E+01
  2.07970E+01  2.01802E+01  1.95900E+01  2.89749E-01  1.36682E+00  2.54124E-02 -9.33137E-01 -1.74065E-04 -3.48439E-04 -2.95502E-04  2.35477E-03  4.30976E+00 -3.55240E-04  2.88317E-05 -1.56917E-05 -1.88296E-06  1.50000E+01
  2.05310E+01  2.02053E+01  2.01786E+01  2.68064E-01  9.85343E-01 -1.39470E-02 -5.42348E-01 -1.05369E-04 -2.11496E-04  8.81407E-05  2.60057E-03  2.95763E+00 -4.64296E-04  1.42277E-05 -5.79693E-06  6.05460E-06  1.50000E+01
  2.05291E+01  2.01968E+01  2.01524E+01  2.79785E-01  9.86299E-01 -1.22820E-02 -5.33452E-01 -9.58514E-05 -1.95441E-04  6.92480E-05  2.68630E-03  2.93096E+00 -3.28482E-04  1.29745E-05 -5.65681E-06  5.12150E-06  1.50000E+01
  2.03446E+01  2.02718E+01  2.00815E+01  2.00444E-01  7.12004E-01 -1.09382E-02 -3.36707E-01 -4.90087E-05 -1.40862E-04  3.15822E-05  3.54710E-03  2.35579E+00 -6.47808E-04  1.20908E-05 -4.47636E-06  4.49236E-06  1.50000E+01
  2.03912E+01  2.02982E+01  2.02175E+01  1.54220E-01  7.49673E-01 -1.97696E-02 -6.29696E-01 -9.31300E-05 -2.23391E-04  1.26895E-04  2.59223E-03  2.41798E+00 -1.23480E-03  1.73917E-05 -2.06842E-06  1.26910E-05  1.50000E+01
  2.04111E+01  2.02957E+01  2.02316E+01  1.55584E-01  7.78106E-01 -1.96998E-02 -6.68568E-01 -1.02963E-04 -2.36903E-04  1.41338E-04  2.58415E-03  2.49460E+00 -1.24056E-03  1.78751E-05 -2.08193E-06  1.29221E-05  1.50000E+01
  2.04087E+01  2.02839E+01  2.02062E+01  1.73258E-01  7.83617E-01 -1.91506E-02 -6.01989E-01 -8.94117E-05 -2.10766E-04  1.12932E-04  2.64231E-03  2.52234E+00 -1.09311E-03  1.63611E-05 -2.37414E-06  1.21561E-05  1.50000E+01
  2.01187E+01  2.03756E+01  2.01530E+01  5.34525E-02  2.79691E-01 -1.58976E-02 -3.66264E-01 -1.10912E-05 -1.52701E-04  5.86335E-05  4.40329E-03  8.81348E-01 -5.09924E-03  3.14021E-05 -7.32521E-06  4.46785E-06  1.50000E+01
  2.00997E+01  2.03851E+01  2.01643E+01  3.44814E-02  2.27249E-01 -1.30206E-02 -3.60805E-01 -5.99872E-06 -1.77600E-04  7.03676E-05  3.70519E-03  7.16122E-01 -6.60083E-03  3.83285E-05 -7.83145E-06  5.05238E-06  1.50000E+01