 TITLE="3D TRIANGULAR SURFACE DATA"
VARIABLES="X","Y","Z","U","V","W","P", "Fex", "Fey", "Fez","Finx","Finy","Finz","WSSx","WSSy","WSSz","AMForce"
 ZONE T="unstruc"N=        1757 E=        3355 F=FEPOINT  ET=TRIANGLE
  2.03599E+01  1.98858E+01  2.00987E+01  2.39773E-01  1.29186E+00  5.87063E-04 -1.26331E+00 -5.90319E-04 -6.77351E-04  1.70527E-04  3.85275E-03  5.34479E+00  6.10627E-04  3.14522E-05 -3.13055E-05 -3.87155E-06  1.50000E+01
  2.03764E+01  1.98700E+01  2.00989E+01  2.44208E-01  1.29481E+00 -1.17801E-05 -1.26837E+00 -2.76189E-04 -3.16997E-04  7.77574E-05  1.17720E-03  2.51178E+00 -1.01810E-03  1.48413E-05 -1.48129E-05 -1.95935E-06  1.50000E+01
  2.03712E+01  1.98699E+01  2.00774E+01  2.43919E-01  1.29126E+00  1.60524E-04 -1.28713E+00 -4.02752E-04 -4.64296E-04  8.82823E-05  2.92466E-03  3.70239E+00 -7.10311E-04  2.15879E-05 -2.11618E-05 -2.49128E-06  1.50000E+01
  2.03605E+01  1.98950E+01  2.01300E+01  2.37685E-01  1.29650E+00  6.20879E-04 -1.27207E+00 -4.98584E-04 -5.66974E-04  1.87842E-04  2.92908E-03  4.52388E+00  2.69160E-04  2.70162E-05 -2.77073E-05 -3.88681E-06  1.50000E+01
  2.03753E+01  1.98774E+01  2.01202E+01  2.42982E-01  1.29805E+00  2.27153E-04 -1.26030E+00 -4.06538E-04 -4.62501E-04  1.40267E-04  2.11506E-03  3.69877E+00  1.16951E-04  2.19893E-05 -2.24730E-05 -3.23544E-06  1.50000E+01
  2.03888E+01  1.98614E+01  2.01111E+01  2.46623E-01  1.29798E+00 -1.17971E-04 -1.26446E+00 -3.46496E-04 -3.97399E-04  1.08212E-04  2.03173E-03  3.18338E+00 -3.35579E-04  1.88921E-05 -1.90760E-05 -2.79266E-06  1.50000E+01
  2.03866E+01  1.98573E+01  2.00870E+01  2.46857E-01  1.29394E+00  2.38673E-05 -1.29021E+00 -3.45819E-04 -3.99786E-04  8.33574E-05  2.31578E-03  3.19196E+00  1.11111E-04  1.86993E-05 -1.84007E-05 -2.37666E-06  1.50000E+01
  2.03678E+01  1.98685E+01  2.00502E+01  2.43745E-01  1.28831E+00  2.92871E-04 -1.25160E+00 -4.26969E-04 -4.97149E-04  6.15967E-05  2.56279E-03  4.02435E+00  9.87875E-05  2.27774E-05 -2.18070E-05 -1.89005E-06  1.50000E+01
  2.03543E+01  1.98839E+01  2.00669E+01  2.39617E-01  1.28723E+00  6.07091E-04 -1.23842E+00 -4.89997E-04 -5.68380E-04  9.83616E-05  2.57323E-03  4.53379E+00  5.78262E-04  2.59420E-05 -2.50965E-05 -2.49449E-06  1.50000E+01
  2.03515E+01  1.98824E+01  2.00377E+01  2.39677E-01  1.28466E+00  4.34603E-04 -1.23611E+00 -4.51769E-04 -5.26864E-04  5.09209E-05  2.46109E-03  4.25320E+00  2.44042E-04  2.35647E-05 -2.23624E-05 -1.47560E-06  1.50000E+01
  2.03771E+01  1.98851E+01  2.01465E+01  2.41760E-01  1.30322E+00  1.95712E-04 -1.28600E+00 -4.42755E-04 -4.99080E-04  1.84174E-04  2.77310E-03  3.99697E+00  2.51109E-04  2.39535E-05 -2.51772E-05 -3.98922E-06  1.50000E+01
  2.03906E+01  1.98677E+01  2.01358E+01  2.46150E-01  1.30291E+00 -1.69490E-04 -1.28661E+00 -4.04952E-04 -4.59136E-04  1.53688E-04  2.59669E-03  3.68440E+00 -6.07989E-05  2.20627E-05 -2.29392E-05 -3.69538E-06  1.50000E+01
  2.03251E+01  1.99189E+01  2.00978E+01  2.26962E-01  1.28111E+00  1.07026E-03 -1.25070E+00 -4.94438E-04 -5.71277E-04  1.50192E-04  2.48782E-03  4.54399E+00  1.62153E-04  2.67593E-05 -2.63830E-05 -2.85283E-06  1.50000E+01
  2.03223E+01  1.99145E+01  2.00686E+01  2.28195E-01  1.27770E+00  8.73054E-04 -1.22715E+00 -4.81024E-04 -5.60348E-04  1.03361E-04  2.45944E-03  4.46512E+00  1.11187E-04  2.57149E-05 -2.47495E-05 -2.16423E-06  1.50000E+01
  2.03077E+01  1.99316E+01  2.00830E+01  2.20798E-01  1.27267E+00  1.08585E-03 -1.24590E+00 -4.70348E-04 -5.47582E-04  1.24922E-04  2.42800E-03  4.34979E+00  1.23230E-04  2.55605E-05 -2.47623E-05 -2.24598E-06  1.50000E+01
  2.03431E+01  1.99063E+01  2.01132E+01  2.32767E-01  1.28911E+00  8.92188E-04 -1.25207E+00 -5.32601E-04 -6.10429E-04  1.80572E-04  2.95963E-03  4.85276E+00  3.90944E-05  2.88380E-05 -2.90020E-05 -3.68970E-06  1.50000E+01
  2.03283E+01  1.99251E+01  2.01266E+01  2.25079E-01  1.28548E+00  1.14782E-03 -1.24520E+00 -4.83598E-04 -5.53569E-04  1.88201E-04  2.53992E-03  4.44099E+00  1.06329E-04  2.69459E-05 -2.73815E-05 -3.43971E-06  1.50000E+01
  2.03460E+01  1.99138E+01  2.01421E+01  2.30704E-01  1.29412E+00  8.75316E-04 -1.27036E+00 -4.83549E-04 -5.47754E-04  2.04733E-04  2.68850E-03  4.40797E+00  1.88550E-05  2.67207E-05 -2.77307E-05 -3.79032E-06  1.50000E+01
  2.03400E+01  1.99009E+01  2.00832E+01  2.33994E-01  1.28491E+00  8.30685E-04 -1.25688E+00 -5.29466E-04 -6.12392E-04  1.34197E-04  2.66736E-03  4.85721E+00  1.59916E-04  2.80535E-05 -2.73965E-05 -2.82699E-06  1.50000E+01
  2.03370E+01  1.98980E+01  2.00535E+01  2.34532E-01  1.28172E+00  6.59168E-04 -1.23023E+00 -4.75658E-04 -5.54029E-04  7.80993E-05  2.50169E-03  4.44194E+00  1.66668E-04  2.50130E-05 -2.39067E-05 -1.82732E-06  1.50000E+01
  2.04015E+01  1.98460E+01  2.00992E+01  2.48901E-01  1.29589E+00 -1.60095E-04 -1.28537E+00 -3.79902E-04 -4.40941E-04  1.03272E-04  2.98649E-03  3.50597E+00 -3.75753E-05  2.09071E-05 -2.07335E-05 -3.06432E-06  1.50000E+01
  2.03992E+01  1.98425E+01  2.00735E+01  2.48726E-01  1.29193E+00 -8.00946E-06 -1.29884E+00 -3.85984E-04 -4.51604E-04  7.70084E-05  3.10489E-03  3.62270E+00  8.08214E-05  2.13382E-05 -2.06807E-05 -2.67765E-06  1.50000E+01
  2.04039E+01  1.98510E+01  2.01246E+01  2.48973E-01  1.30088E+00 -3.91290E-04 -1.27005E+00 -3.90959E-04 -4.49089E-04  1.33690E-04  2.94836E-03  3.61713E+00 -2.61388E-04  2.17600E-05 -2.22116E-05 -3.60815E-06  1.50000E+01
  2.03837E+01  1.98552E+01  2.00617E+01  2.46814E-01  1.29067E+00  8.50658E-05 -1.28277E+00 -3.93148E-04 -4.57665E-04  6.70030E-05  2.90041E-03  3.70502E+00 -1.55309E-04  2.13916E-05 -2.06455E-05 -2.21977E-06  1.50000E+01
  2.03973E+01  1.98403E+01  2.00469E+01  2.48496E-01  1.28908E+00  1.70748E-05 -1.26433E+00 -3.97517E-04 -4.67873E-04  5.02497E-05  3.24825E-03  3.81134E+00 -5.76759E-05  2.20694E-05 -2.09887E-05 -2.09887E-06  1.50000E+01
  2.03352E+01  1.98965E+01  2.00243E+01  2.34804E-01  1.27991E+00  3.79138E-04 -1.22515E+00 -4.54614E-04 -5.30718E-04  3.42343E-05  2.47871E-03  4.26615E+00  1.14699E-04  2.33390E-05 -2.19931E-05 -9.32908E-07  1.50000E+01
  2.03660E+01  1.98675E+01  2.00220E+01  2.43675E-01  1.28661E+00  1.97290E-04 -1.23999E+00 -4.29791E-04 -5.02035E-04  2.73664E-05  2.58808E-03  4.08436E+00  1.27735E-04  2.24768E-05 -2.12057E-05 -1.04888E-06  1.50000E+01
  2.03502E+01  1.98817E+01  2.00090E+01  2.39702E-01  1.28353E+00  1.76434E-04 -1.23421E+00 -4.41142E-04 -5.14996E-04  1.22014E-05  2.51746E-03  4.16788E+00  1.15389E-04  2.25823E-05 -2.12357E-05 -4.29845E-07  1.50000E+01
  2.03321E+01  1.99327E+01  2.01543E+01  2.22562E-01  1.29080E+00  1.12165E-03 -1.27771E+00 -4.65708E-04 -5.26293E-04  2.19462E-04  2.55344E-03  4.28298E+00  5.61071E-05  2.64759E-05 -2.77483E-05 -3.64739E-06  1.50000E+01
  2.03498E+01  1.99222E+01  2.01694E+01  2.28229E-01  1.30017E+00  7.54989E-04 -1.27267E+00 -4.60847E-04 -5.14919E-04  2.31203E-04  2.61316E-03  4.22441E+00  3.56084E-05  2.59391E-05 -2.78872E-05 -4.08833E-06  1.50000E+01
  2.06836E+01  1.97034E+01  1.96772E+01  2.76656E-02  1.07314E+00 -1.40993E-01 -7.70984E-01 -1.65103E-04 -4.00301E-04 -1.26560E-04  1.75764E-03  3.39827E+00 -4.13085E-03  3.29124E-05 -2.49008E-05  1.80416E-05  1.50000E+01
  2.06637E+01  1.97092E+01  1.96906E+01  5.09906E-02  1.09674E+00 -1.19459E-01 -8.10130E-01 -1.99295E-04 -4.29705E-04 -1.44262E-04  4.85015E-03  3.47172E+00 -1.42564E-03  3.22210E-05 -2.58628E-05  1.72157E-05  1.50000E+01
  2.06790E+01  1.96958E+01  1.97044E+01 -8.83214E-03  9.85962E-01 -1.48692E-01 -8.13413E-01 -1.65916E-04 -4.38166E-04 -1.17765E-04 -2.65461E-03  3.11768E+00 -7.39687E-03  3.36942E-05 -2.22405E-05  1.70708E-05  1.50000E+01
  2.06591E+01  1.97015E+01  1.97178E+01  1.71473E-02  1.01923E+00 -1.26231E-01 -9.91018E-01 -2.14198E-04 -4.98724E-04 -1.42617E-04  9.44572E-04  3.22387E+00 -4.37370E-03  3.32779E-05 -2.36821E-05  1.70389E-05  1.50000E+01
  2.06751E+01  1.96893E+01  1.97319E+01 -4.47242E-02  8.95426E-01 -1.52550E-01 -9.86901E-01 -1.69892E-04 -4.89127E-04 -1.10677E-04 -7.43992E-03  2.82527E+00 -1.02256E-02  3.24355E-05 -1.85746E-05  1.53779E-05  1.50000E+01
  2.07450E+01  1.96884E+01  1.96385E+01 -2.54393E-02  1.02892E+00 -2.01706E-01 -2.56284E-01 -2.86790E-05 -1.78809E-04 -3.67337E-05 -3.26660E-03  3.25860E+00 -1.01316E-02  3.90903E-05 -2.39482E-05  1.87325E-05  1.50000E+01
  2.07243E+01  1.96930E+01  1.96511E+01 -1.09214E-02  1.03789E+00 -1.82611E-01 -7.30374E-01 -8.55459E-05 -2.88507E-04 -7.74306E-05 -2.63339E-03  3.28666E+00 -8.81967E-03  3.60398E-05 -2.38022E-05  1.86163E-05  1.50000E+01
  2.07404E+01  1.96814E+01  1.96654E+01 -6.77743E-02  9.16880E-01 -2.11557E-01 -3.89758E-01 -5.30847E-05 -2.61343E-04 -5.15218E-05 -7.41439E-03  2.89757E+00 -1.28216E-02  3.92456E-05 -2.05378E-05  1.72947E-05  1.50000E+01
  2.04068E+01  1.98573E+01  2.01502E+01  2.48936E-01  1.30696E+00 -6.51166E-04 -1.29146E+00 -4.16811E-04 -4.72129E-04  1.70590E-04  3.21295E-03  3.81098E+00 -2.27901E-04  2.28970E-05 -2.41435E-05 -4.20994E-06  1.50000E+01
  2.07364E+01  1.96756E+01  1.96927E+01 -1.07796E-01  8.00661E-01 -2.15595E-01 -5.39428E-01 -6.08621E-05 -3.06135E-04 -5.22938E-05 -1.10592E-02  2.52205E+00 -1.43611E-02  3.76545E-05 -1.64193E-05  1.37349E-05  1.50000E+01
  2.07572E+01  1.96715E+01  1.96801E+01 -1.22436E-01  7.85171E-01 -2.34567E-01 -2.05586E-01 -4.13097E-06 -1.41968E-04 -1.60160E-05 -1.00504E-02  2.47453E+00 -1.39414E-02  3.89746E-05 -1.62521E-05  1.38152E-05  1.50000E+01
  2.04115E+01  1.98256E+01  2.00324E+01  2.48639E-01  1.28593E+00 -3.63030E-05 -1.30794E+00 -3.92458E-04 -4.68303E-04  3.33886E-05  3.69423E-03  3.84719E+00 -7.09185E-05  2.28042E-05 -2.13550E-05 -1.71053E-06  1.50000E+01
  2.03961E+01  1.98391E+01  2.00195E+01  2.48276E-01  1.28749E+00 -1.47288E-05 -1.25829E+00 -4.03107E-04 -4.76138E-04  2.10132E-05  3.16814E-03  3.90914E+00 -1.86027E-05  2.23546E-05 -2.09665E-05 -1.09650E-06  1.50000E+01
  2.03633E+01  1.99034E+01  2.01578E+01  2.35715E-01  1.30224E+00  4.89287E-04 -1.28056E+00 -4.64113E-04 -5.20304E-04  2.12069E-04  2.64013E-03  4.20807E+00  8.82530E-05  2.53134E-05 -2.68830E-05 -4.06981E-06  1.50000E+01
  2.03674E+01  1.99120E+01  2.01843E+01  2.33491E-01  1.30906E+00  2.43550E-04 -1.31011E+00 -4.48637E-04 -4.96475E-04  2.38227E-04  2.75826E-03  4.14153E+00  3.87110E-05  2.53202E-05 -2.79551E-05 -4.58237E-06  1.50000E+01
  2.03805E+01  1.98932E+01  2.01729E+01  2.40263E-01  1.30975E+00 -5.66443E-05 -1.30915E+00 -4.41638E-04 -4.91655E-04  2.15368E-04  2.86520E-03  4.05176E+00  7.72970E-05  2.43814E-05 -2.65403E-05 -4.47587E-06  1.50000E+01
  2.03346E+01  1.98963E+01  1.99956E+01  2.34821E-01  1.27940E+00  4.19392E-05 -1.22425E+00 -4.44586E-04 -5.18871E-04 -5.34511E-06  2.49890E-03  4.17235E+00  4.30005E-05  2.24358E-05 -2.10522E-05  1.13367E-07  1.50000E+01
  2.03654E+01  1.98675E+01  1.99937E+01  2.43600E-01  1.28621E+00 -5.29791E-06 -1.23877E+00 -4.28035E-04 -5.00468E-04 -7.31877E-06  2.64410E-03  4.07653E+00  5.95080E-05  2.22165E-05 -2.08725E-05  2.84506E-07  1.50000E+01
  2.03500E+01  1.98823E+01  1.99806E+01  2.39579E-01  1.28368E+00 -1.17019E-04 -1.23249E+00 -4.36029E-04 -5.08726E-04 -2.46762E-05  2.55919E-03  4.11361E+00  2.31578E-05  2.22398E-05 -2.09339E-05  6.84473E-07  1.50000E+01
  2.06890E+01  1.96750E+01  1.97743E+01 -1.35740E-01  6.55905E-01 -1.67469E-01 -1.38769E+00 -1.23471E-04 -5.27773E-04 -7.28877E-05 -1.71646E-02  2.04791E+00 -1.45102E-02  2.97507E-05 -1.06195E-05  8.26059E-06  1.50000E+01
  2.07095E+01  1.96711E+01  1.97611E+01 -1.57402E-01  6.07237E-01 -1.86973E-01 -1.07743E+00 -7.01964E-05 -3.67974E-04 -4.58912E-05 -1.66308E-02  1.89278E+00 -1.45552E-02  2.92985E-05 -9.33307E-06  7.44258E-06  1.50000E+01
  2.06919E+01  1.96792E+01  1.97464E+01 -1.04355E-01  7.55425E-01 -1.73668E-01 -1.01669E+00 -1.25717E-04 -4.75603E-04 -8.05868E-05 -1.40624E-02  2.37159E+00 -1.41530E-02  3.13290E-05 -1.36712E-05  1.20003E-05  1.50000E+01
  2.04171E+01  1.98346E+01  2.01124E+01  2.50090E-01  1.29685E+00 -3.89731E-04 -1.27611E+00 -3.96784E-04 -4.63018E-04  1.19678E-04  3.71442E-03  3.71945E+00 -2.57209E-04  2.26392E-05 -2.26619E-05 -3.82701E-06  1.50000E+01
  2.01217E+01  2.01573E+01  2.01915E+01  6.90171E-02  1.13684E+00 -2.12922E-04 -1.05010E+00 -3.91277E-04 -5.04498E-04  3.35283E-04  2.15783E-03  3.57022E+00 -5.70564E-04  4.39144E-05 -4.22679E-05 -1.67158E-06  1.50000E+01
  2.01086E+01  2.01774E+01  2.02020E+01  5.26802E-02  1.12288E+00 -2.07054E-04 -1.10803E+00 -3.79944E-04 -5.21968E-04  3.59151E-04  1.82858E-03  3.52744E+00 -7.15832E-04  5.94710E-05 -5.55833E-05 -6.48014E-07  1.50000E+01
  2.01280E+01  2.01695E+01  2.02149E+01  5.99861E-02  1.14121E+00 -1.39460E-04 -1.09059E+00 -3.50403E-04 -4.74627E-04  3.45480E-04  1.63395E-03  3.59426E+00 -6.05318E-04  5.64148E-05 -5.51767E-05 -1.84637E-06  1.50000E+01
  2.07508E+01  1.96639E+01  1.97353E+01 -1.91415E-01  5.40049E-01 -2.23229E-01  1.10047E-01  3.47174E-05 -1.96371E-05  4.24680E-06 -1.30881E-02  1.68428E+00 -1.20764E-02  3.70229E-05 -1.01259E-05  6.27429E-06  1.50000E+01
  2.07716E+01  1.96602E+01  1.97226E+01 -2.05996E-01  5.20062E-01 -2.41444E-01  5.20492E-01  3.04567E-05  3.46070E-05  8.01920E-06 -6.71312E-02  6.52102E-01 -3.35069E-02  1.82138E-05 -5.12225E-06  3.37281E-06  1.50000E+01
  2.07537E+01  1.96671E+01  1.97076E+01 -1.59554E-01  6.61272E-01 -2.32110E-01  2.25208E-01  1.54784E-05 -8.81172E-05 -5.93561E-06 -1.22224E-02  2.07475E+00 -1.35819E-02  3.66769E-05 -1.23554E-05  9.12024E-06  1.50000E+01
  2.06953E+01  1.96844E+01  1.97186E+01 -6.93537E-02  8.56683E-01 -1.74692E-01 -8.06211E-01 -1.15816E-04 -4.03991E-04 -8.15217E-05 -9.96617E-03  2.70035E+00 -1.25906E-02  3.46975E-05 -1.79554E-05  1.56725E-05  1.50000E+01
  2.07124E+01  1.96750E+01  1.97333E+01 -1.25944E-01  7.14922E-01 -1.94138E-01 -9.70106E-01 -7.73272E-05 -3.65603E-04 -5.53064E-05 -1.44684E-02  2.24197E+00 -1.48910E-02  3.41763E-05 -1.34077E-05  1.14925E-05  1.50000E+01
  2.03348E+01  1.98975E+01  1.99673E+01  2.34543E-01  1.28006E+00 -2.99219E-04 -1.22838E+00 -4.40238E-04 -5.13574E-04 -4.34350E-05  2.49911E-03  4.11731E+00 -2.82675E-05  2.26653E-05 -2.14165E-05  1.07426E-06  1.50000E+01
  2.03203E+01  1.99119E+01  2.00395E+01  2.28900E-01  1.27539E+00  5.84873E-04 -1.22012E+00 -4.63472E-04 -5.41596E-04  5.77848E-05  2.44526E-03  4.31967E+00  9.01845E-05  2.41661E-05 -2.28522E-05 -1.29474E-06  1.50000E+01
  2.03192E+01  1.99109E+01  2.00106E+01  2.29188E-01  1.27428E+00  2.28392E-04 -1.21448E+00 -4.51846E-04 -5.28276E-04  1.56550E-05  2.46060E-03  4.21589E+00  4.59038E-05  2.30284E-05 -2.15890E-05 -3.70099E-07  1.50000E+01
  2.07296E+01  1.97013E+01  1.96245E+01  2.98432E-02  1.13624E+00 -1.69269E-01 -4.86128E-01 -6.23640E-05 -2.19365E-04 -6.58129E-05  1.31666E-03  3.60181E+00 -5.39817E-03  3.52881E-05 -2.65817E-05  1.91740E-05  1.50000E+01
  2.06551E+01  1.96947E+01  1.97454E+01 -1.65578E-02  9.38953E-01 -1.29724E-01 -1.19694E+00 -2.13148E-04 -5.35096E-04 -1.30852E-04 -3.58692E-03  2.96445E+00 -7.12384E-03  3.24890E-05 -2.05358E-05  1.61037E-05  1.50000E+01
  2.06717E+01  1.96838E+01  1.97597E+01 -7.87119E-02  8.03791E-01 -1.51940E-01 -1.09669E+00 -1.54587E-04 -5.05304E-04 -9.21869E-05 -1.20207E-02  2.52745E+00 -1.22097E-02  3.09421E-05 -1.51947E-05  1.34725E-05  1.50000E+01
  2.03054E+01  1.99279E+01  2.00542E+01  2.22023E-01  1.26999E+00  7.92046E-04 -1.21876E+00 -4.62849E-04 -5.41650E-04  8.09229E-05  2.42876E-03  4.29535E+00  7.86647E-05  2.44753E-05 -2.32434E-05 -1.53671E-06  1.50000E+01
  2.02888E+01  1.99415E+01  2.00400E+01  2.15363E-01  1.26173E+00  6.31494E-04 -1.19993E+00 -4.53259E-04 -5.33509E-04  6.01230E-05  2.44471E-03  4.18609E+00  5.02865E-05  2.38795E-05 -2.24148E-05 -1.13987E-06  1.50000E+01
  2.02906E+01  1.99444E+01  2.00684E+01  2.14237E-01  1.26376E+00  9.87850E-04 -1.21024E+00 -4.56828E-04 -5.36103E-04  1.03102E-04  2.45281E-03  4.22661E+00  9.21704E-05  2.46847E-05 -2.35120E-05 -1.62006E-06  1.50000E+01
  2.04147E+01  1.98304E+01  2.00861E+01  2.49552E-01  1.29197E+00 -1.44423E-04 -1.30592E+00 -3.96359E-04 -4.66741E-04  9.13141E-05  3.73567E-03  3.71057E+00 -1.13154E-04  2.24458E-05 -2.18785E-05 -3.41854E-06  1.50000E+01
  2.04128E+01  1.98274E+01  2.00595E+01  2.49042E-01  1.28830E+00 -2.84664E-05 -1.32564E+00 -3.94155E-04 -4.67914E-04  6.22164E-05  3.71720E-03  3.77632E+00 -3.06586E-05  2.26932E-05 -2.16236E-05 -2.81600E-06  1.50000E+01
  2.04260E+01  1.98113E+01  2.00181E+01  2.46935E-01  1.28077E+00 -6.11158E-05 -1.27661E+00 -3.84466E-04 -4.67083E-04  1.74825E-05  4.33524E-03  3.85340E+00 -7.82193E-05  2.39228E-05 -2.20359E-05 -1.21379E-06  1.50000E+01
  2.04108E+01  1.98250E+01  2.00050E+01  2.48416E-01  1.28495E+00 -9.89219E-05 -1.26975E+00 -3.94327E-04 -4.71242E-04  4.71286E-06  3.61427E-03  3.89384E+00 -4.50143E-05  2.27781E-05 -2.11379E-05 -2.61445E-07  1.50000E+01
  2.07157E+01  1.96799E+01  1.97056E+01 -9.02869E-02  8.24661E-01 -1.95724E-01 -6.95589E-01 -8.26278E-05 -3.46768E-04 -6.36330E-05 -1.11039E-02  2.59804E+00 -1.39621E-02  3.65216E-05 -1.71786E-05  1.47687E-05  1.50000E+01
  2.07197E+01  1.96859E+01  1.96782E+01 -5.14860E-02  9.33263E-01 -1.91729E-01 -5.41026E-01 -9.69906E-05 -3.43554E-04 -7.94440E-05 -6.99233E-03  2.94983E+00 -1.18537E-02  3.48116E-05 -1.96650E-05  1.68414E-05  1.50000E+01
  2.06441E+01  1.97154E+01  1.97043E+01  7.60160E-02  1.12221E+00 -9.83665E-02 -9.14499E-01 -2.37323E-04 -4.60552E-04 -1.62494E-04  7.98023E-03  3.55050E+00  1.06763E-03  3.12602E-05 -2.65284E-05  1.61495E-05  1.50000E+01
  2.03143E+01  1.99436E+01  2.01393E+01  2.16477E-01  1.28100E+00  1.35318E-03 -1.26555E+00 -4.62603E-04 -5.28739E-04  2.03185E-04  2.49469E-03  4.27367E+00  1.16227E-04  2.66457E-05 -2.73095E-05 -3.32260E-06  1.50000E+01
  2.03007E+01  1.99624E+01  2.01518E+01  2.06880E-01  1.27568E+00  1.49365E-03 -1.25078E+00 -4.54372E-04 -5.18423E-04  2.22821E-04  2.47803E-03  4.19697E+00  1.02448E-04  2.67709E-05 -2.75718E-05 -3.03291E-06  1.50000E+01
  2.03186E+01  1.99517E+01  2.01664E+01  2.13337E-01  1.28658E+00  1.32101E-03 -1.26773E+00 -4.56314E-04 -5.14225E-04  2.37599E-04  2.53960E-03  4.21712E+00  7.77344E-05  2.66556E-05 -2.81059E-05 -3.39298E-06  1.50000E+01
  2.07330E+01  1.96710E+01  1.97203E+01 -1.44061E-01  6.83474E-01 -2.13460E-01 -6.65154E-01 -2.45337E-05 -2.07834E-04 -2.71585E-05 -1.36888E-02  2.14280E+00 -1.45777E-02  3.57572E-05 -1.25890E-05  9.41203E-06  1.50000E+01
  2.06689E+01  1.97179E+01  1.96638E+01  8.38298E-02  1.17011E+00 -1.10239E-01 -8.64068E-01 -1.90177E-04 -3.82130E-04 -1.49218E-04  7.75459E-03  3.70556E+00  1.30212E-03  3.09499E-05 -2.72407E-05  1.59567E-05  1.50000E+01
  2.06493E+01  1.97242E+01  1.96774E+01  1.05531E-01  1.18669E+00 -9.06433E-02 -8.92244E-01 -2.25683E-04 -4.11410E-04 -1.68084E-04  1.01265E-02  3.75469E+00  3.25012E-03  3.03127E-05 -2.80054E-05  1.51730E-05  1.50000E+01
  2.03849E+01  1.99020E+01  2.01989E+01  2.38372E-01  1.31740E+00 -4.33879E-04 -1.31492E+00 -4.43105E-04 -4.85831E-04  2.47279E-04  3.01384E-03  4.09834E+00 -2.34003E-05  2.48443E-05 -2.80276E-05 -4.82029E-06  1.50000E+01
  2.03977E+01  1.98831E+01  2.01875E+01  2.44382E-01  1.31658E+00 -7.55151E-04 -1.32385E+00 -4.32807E-04 -4.78610E-04  2.23337E-04  3.19842E-03  4.01878E+00 -5.93508E-05  2.42002E-05 -2.69337E-05 -4.87729E-06  1.50000E+01
  2.03723E+01  1.99215E+01  2.02102E+01  2.30783E-01  1.31690E+00 -1.02263E-04 -1.30759E+00 -4.51215E-04 -4.91744E-04  2.71571E-04  2.86667E-03  4.15793E+00 -2.88582E-05  2.58565E-05 -2.95000E-05 -4.74258E-06  1.50000E+01
  2.03656E+01  1.98687E+01  1.99657E+01  2.43451E-01  1.28706E+00 -2.26558E-04 -1.24502E+00 -4.28345E-04 -5.00881E-04 -4.22556E-05  2.66771E-03  4.06211E+00 -1.69682E-05  2.25974E-05 -2.13870E-05  1.37826E-06  1.50000E+01
  2.07038E+01  1.96980E+01  1.96640E+01  6.84521E-03  1.05301E+00 -1.62247E-01 -7.73861E-01 -1.35170E-04 -3.71306E-04 -1.10595E-04 -8.83414E-04  3.33517E+00 -6.72941E-03  3.36381E-05 -2.37913E-05  1.80508E-05  1.50000E+01
  2.07091E+01  1.97064E+01  1.96373E+01  4.52623E-02  1.14361E+00 -1.50245E-01 -6.23268E-01 -1.09804E-04 -2.93242E-04 -9.93419E-05  2.89952E-03  3.62443E+00 -3.37454E-03  3.34947E-05 -2.68798E-05  1.87154E-05  1.50000E+01
  2.06889E+01  1.97119E+01  1.96504E+01  6.34615E-02  1.15532E+00 -1.30351E-01 -9.21817E-01 -1.50539E-04 -3.42624E-04 -1.26028E-04  5.16723E-03  3.66099E+00 -1.03668E-03  3.21514E-05 -2.68773E-05  1.69011E-05  1.50000E+01
  2.06300E+01  1.97310E+01  1.96913E+01  1.27665E-01  1.20389E+00 -7.22344E-02 -1.09696E+00 -2.56381E-04 -4.28806E-04 -1.80809E-04  1.20041E-02  3.80569E+00  4.67091E-03  3.00040E-05 -2.85333E-05  1.36678E-05  1.50000E+01
  2.04332E+01  1.98233E+01  2.01261E+01  2.50133E-01  1.29652E+00 -5.50683E-04 -1.27511E+00 -4.02271E-04 -4.72502E-04  1.32980E-04  4.43108E-03  3.81919E+00 -5.21958E-04  2.35855E-05 -2.38792E-05 -4.74846E-06  1.50000E+01
  2.04199E+01  1.98401E+01  2.01384E+01  2.50600E-01  1.30289E+00 -7.33119E-04 -1.28872E+00 -4.09678E-04 -4.71651E-04  1.52008E-04  3.71050E-03  3.80093E+00 -4.10752E-04  2.31355E-05 -2.38776E-05 -4.27079E-06  1.50000E+01
  2.03107E+01  1.99368E+01  2.01115E+01  2.18964E-01  1.27636E+00  1.27847E-03 -1.24778E+00 -4.71333E-04 -5.44338E-04  1.66902E-04  2.46987E-03  4.33812E+00  1.45568E-04  2.62860E-05 -2.61762E-05 -2.93985E-06  1.50000E+01
  2.02933E+01  1.99489E+01  2.00967E+01  2.12466E-01  1.26679E+00  1.26434E-03 -1.23829E+00 -4.61078E-04 -5.37340E-04  1.46198E-04  2.45910E-03  4.24115E+00  1.23446E-04  2.56751E-05 -2.50132E-05 -2.22078E-06  1.50000E+01
  2.01150E+01  2.01903E+01  2.02248E+01  4.30313E-02  1.12695E+00  0.00000E+00 -2.91325E-01 -1.32136E-04 -2.01163E-04  1.43910E-04  9.83489E+00 -4.40029E+01 -4.05854E+01  3.41486E-05 -3.15226E-05  4.63323E-07  1.50000E+01
  2.07780E+01  1.96675E+01  1.96676E+01 -1.34981E-01  7.77659E-01 -2.53154E-01  2.54704E-01  1.11953E-05 -3.23317E-05  2.50654E-07 -7.11590E-02  1.08972E+00 -4.88831E-02  1.99565E-05 -8.44832E-06  7.28006E-06  1.50000E+01
  2.07612E+01  1.96771E+01  1.96529E+01 -8.10390E-02  9.08110E-01 -2.30247E-01 -2.52208E-01 -1.21459E-05 -1.64391E-04 -2.42544E-05 -6.72195E-03  2.87125E+00 -1.28876E-02  4.19357E-05 -2.11010E-05  1.80139E-05  1.50000E+01
  2.06551E+01  1.97339E+01  1.96511E+01  1.33097E-01  1.24734E+00 -8.16589E-02 -8.70743E-01 -2.23442E-04 -3.81607E-04 -1.80955E-04  1.12450E-02  3.94676E+00  4.92250E-03  2.98684E-05 -2.92414E-05  1.32802E-05  1.50000E+01
  2.06357E+01  1.97407E+01  1.96649E+01  1.51743E-01  1.25696E+00 -6.49647E-02 -9.31610E-01 -2.57983E-04 -4.05020E-04 -1.97991E-04  1.24954E-02  3.97283E+00  5.85511E-03  2.94381E-05 -2.94900E-05  1.18819E-05  1.50000E+01
  2.03191E+01  1.99113E+01  1.99821E+01  2.29073E-01  1.27433E+00 -1.53939E-04 -1.21527E+00 -4.44893E-04 -5.19833E-04 -2.42532E-05  2.46691E-03  4.14371E+00 -1.21738E-05  2.26300E-05 -2.12344E-05  5.98727E-07  1.50000E+01
  2.04233E+01  1.98468E+01  2.01645E+01  2.51006E-01  1.31012E+00 -1.15598E-03 -1.29021E+00 -4.20412E-04 -4.76731E-04  1.83961E-04  3.81204E-03  3.89642E+00 -4.50473E-04  2.36128E-05 -2.51891E-05 -4.64931E-06  1.50000E+01
  2.03365E+01  1.99414E+01  2.01811E+01  2.19476E-01  1.29710E+00  1.00056E-03 -1.29440E+00 -4.55052E-04 -5.06780E-04  2.49855E-04  2.60555E-03  4.20802E+00  4.31229E-05  2.64057E-05 -2.86410E-05 -3.94671E-06  1.50000E+01
  2.03544E+01  1.99313E+01  2.01957E+01  2.25289E-01  1.30722E+00  5.31198E-04 -1.30706E+00 -4.52209E-04 -4.98098E-04  2.60607E-04  2.69369E-03  4.18064E+00  2.26664E-05  2.63038E-05 -2.92868E-05 -4.41687E-06  1.50000E+01
  2.01348E+01  2.01375E+01  2.01806E+01  8.47929E-02  1.15010E+00 -1.01343E-04 -9.73419E-01 -3.60351E-04 -4.58599E-04  2.83248E-04  2.20204E-03  3.62075E+00 -4.38851E-04  3.75367E-05 -3.45524E-05  7.46086E-07  1.50000E+01
  2.01160E+01  2.01465E+01  2.01675E+01  7.69867E-02  1.13273E+00 -2.08830E-04 -9.65292E-01 -3.68831E-04 -4.76202E-04  2.71264E-04  2.51185E-03  3.54393E+00 -4.80134E-04  3.81385E-05 -3.55992E-05 -8.31518E-07  1.50000E+01
  2.07151E+01  1.97159E+01  1.96112E+01  8.21337E-02  1.22730E+00 -1.35768E-01 -5.31518E-01 -1.04544E-04 -2.61571E-04 -1.05296E-04  5.65579E-03  3.89061E+00 -3.74869E-04  3.28682E-05 -2.88954E-05  1.74387E-05  1.50000E+01
  2.02725E+01  1.99553E+01  2.00260E+01  2.08157E-01  1.25292E+00  4.26928E-04 -1.19412E+00 -4.48859E-04 -5.31356E-04  3.98162E-05  2.44446E-03  4.10398E+00  2.40226E-05  2.35832E-05 -2.19163E-05 -7.85656E-07  1.50000E+01
  2.02738E+01  1.99574E+01  2.00542E+01  2.07218E-01  1.25438E+00  8.14473E-04 -1.19964E+00 -4.49302E-04 -5.31286E-04  8.26477E-05  2.46562E-03  4.13411E+00  6.12265E-05  2.44077E-05 -2.29525E-05 -1.40484E-06  1.50000E+01
  2.04306E+01  1.98185E+01  2.00995E+01  2.49089E-01  1.29054E+00 -2.22884E-04 -1.28832E+00 -3.99637E-04 -4.75062E-04  1.03879E-04  4.45764E-03  3.78663E+00 -3.69249E-04  2.35447E-05 -2.31747E-05 -4.54336E-06  1.50000E+01
  2.04285E+01  1.98149E+01  2.00727E+01  2.48146E-01  1.28588E+00 -3.68841E-05 -1.31095E+00 -3.99341E-04 -4.79006E-04  7.55388E-05  4.44884E-03  3.79008E+00 -2.28346E-04  2.36757E-05 -2.26618E-05 -3.85537E-06  1.50000E+01
  2.03054E+01  1.99711E+01  2.01784E+01  2.03029E-01  1.28150E+00  1.44708E-03 -1.25795E+00 -4.55397E-04 -5.11930E-04  2.60230E-04  2.44776E-03  4.17810E+00  4.82129E-05  2.70366E-05 -2.86447E-05 -3.11893E-06  1.50000E+01
  2.02924E+01  1.99909E+01  2.01903E+01  1.91700E-01  1.27563E+00  1.49497E-03 -1.24741E+00 -4.52642E-04 -5.08757E-04  2.82301E-04  2.34408E-03  4.13788E+00  4.30481E-06  2.79183E-05 -2.95985E-05 -2.74077E-06  1.50000E+01
  2.03107E+01  1.99811E+01  2.02044E+01  1.98469E-01  1.28820E+00  1.31436E-03 -1.26782E+00 -4.56624E-04 -5.05888E-04  2.96164E-04  2.40255E-03  4.16988E+00 -8.21100E-06  2.78993E-05 -3.03780E-05 -3.15836E-06  1.50000E+01
  2.06167E+01  1.97479E+01  1.96789E+01  1.69909E-01  1.26672E+00 -4.98691E-02 -1.02860E+00 -2.88453E-04 -4.23599E-04 -2.10856E-04  1.31479E-02  3.99973E+00  6.27770E-03  2.91056E-05 -2.99240E-05  1.09145E-05  1.50000E+01
  2.03039E+01  1.99259E+01  2.00255E+01  2.22695E-01  1.26838E+00  4.28872E-04 -1.20928E+00 -4.55262E-04 -5.33489E-04  3.77340E-05  2.44827E-03  4.21984E+00  4.28030E-05  2.33989E-05 -2.19360E-05 -8.04046E-07  1.50000E+01
  2.03034E+01  1.99255E+01  1.99969E+01  2.22847E-01  1.26787E+00  2.75936E-05 -1.20743E+00 -4.48653E-04 -5.25451E-04 -3.79100E-06  2.44672E-03  4.15404E+00 -1.22466E-06  2.26220E-05 -2.11249E-05  1.11042E-07  1.50000E+01
  2.04269E+01  1.98125E+01  2.00456E+01  2.47395E-01  1.28259E+00  5.09473E-06 -1.33960E+00 -3.87999E-04 -4.69682E-04  4.55946E-05  4.38066E-03  3.81914E+00 -1.27312E-04  2.39390E-05 -2.23776E-05 -2.75739E-06  1.50000E+01
  2.06948E+01  1.97215E+01  1.96242E+01  9.74795E-02  1.23155E+00 -1.17734E-01 -6.61314E-01 -1.50888E-04 -3.17742E-04 -1.38516E-04  7.48949E-03  3.90221E+00  1.60390E-03  3.21732E-05 -2.90205E-05  1.56100E-05  1.50000E+01
  2.06748E+01  1.97275E+01  1.96375E+01  1.14728E-01  1.23856E+00 -9.94638E-02 -8.26447E-01 -1.89164E-04 -3.54734E-04 -1.62310E-04  9.45588E-03  3.92257E+00  3.43289E-03  3.13545E-05 -2.91475E-05  1.39403E-05  1.50000E+01
  2.02967E+01  1.99549E+01  2.01245E+01  2.10022E-01  1.27078E+00  1.43577E-03 -1.23504E+00 -4.58376E-04 -5.29868E-04  1.85793E-04  2.47964E-03  4.22468E+00  1.30545E-04  2.65109E-05 -2.65747E-05 -2.87795E-06  1.50000E+01
  2.02791E+01  1.99665E+01  2.01100E+01  2.03216E-01  1.26016E+00  1.38465E-03 -1.22242E+00 -4.53141E-04 -5.28977E-04  1.67460E-04  2.45137E-03  4.16000E+00  1.04753E-04  2.59842E-05 -2.54872E-05 -2.33691E-06  1.50000E+01
  2.04559E+01  1.97841E+01  1.99894E+01  2.36372E-01  1.26226E+00 -2.74309E-04 -1.42426E+00 -3.77256E-04 -4.81593E-04 -1.05636E-05  6.61526E-03  3.84006E+00  9.49737E-05  2.73169E-05 -2.43147E-05  6.62657E-07  1.50000E+01
  2.04409E+01  1.97980E+01  1.99760E+01  2.43187E-01  1.27367E+00 -2.99576E-04 -1.35382E+00 -3.83832E-04 -4.76120E-04 -2.39729E-05  5.28024E-03  3.88241E+00  1.05555E-04  2.55626E-05 -2.32735E-05  1.59981E-06  1.50000E+01
  2.04408E+01  1.97974E+01  2.00038E+01  2.43015E-01  1.27310E+00 -9.93892E-05 -1.29587E+00 -3.78673E-04 -4.70257E-04  3.04719E-06  5.29691E-03  3.85226E+00 -2.82095E-05  2.54836E-05 -2.30854E-05 -3.10981E-07  1.50000E+01
  2.07014E+01  1.97321E+01  1.95984E+01  1.28925E-01  1.30148E+00 -1.04091E-01 -7.97836E-01 -1.61499E-04 -3.14896E-04 -1.60535E-04  8.68435E-03  4.12311E+00  3.52326E-03  3.28194E-05 -3.09744E-05  1.36409E-05  1.50000E+01
  2.04401E+01  1.98364E+01  2.01787E+01  2.52130E-01  1.31229E+00 -1.56647E-03 -1.31935E+00 -4.14724E-04 -4.71948E-04  1.92984E-04  4.44800E-03  3.94008E+00 -7.52927E-04  2.41433E-05 -2.60667E-05 -5.13330E-06  1.50000E+01
  2.04364E+01  1.98293E+01  2.01525E+01  2.51186E-01  1.30377E+00 -1.00300E-03 -1.29300E+00 -4.14049E-04 -4.78684E-04  1.65299E-04  4.42771E-03  3.87589E+00 -6.66129E-04  2.38638E-05 -2.48505E-05 -4.75434E-06  1.50000E+01
  2.02761E+01  1.99612E+01  2.00822E+01  2.05576E-01  1.25680E+00  1.14287E-03 -1.21581E+00 -4.51511E-04 -5.30945E-04  1.25574E-04  2.45948E-03  4.15435E+00  9.09636E-05  2.50742E-05 -2.39872E-05 -1.76923E-06  1.50000E+01
  2.03290E+01  1.99714E+01  2.02185E+01  2.05042E-01  1.30050E+00  9.86828E-04 -1.29229E+00 -4.58597E-04 -5.01234E-04  3.08415E-04  2.48299E-03  4.19091E+00 -2.93415E-05  2.79798E-05 -3.12505E-05 -3.50384E-06  1.50000E+01
  2.03473E+01  1.99620E+01  2.02326E+01  2.11412E-01  1.31251E+00  5.02603E-04 -1.31002E+00 -4.58633E-04 -4.95391E-04  3.18599E-04  2.58648E-03  4.20444E+00 -6.29251E-05  2.81829E-05 -3.24088E-05 -4.04701E-06  1.50000E+01
  2.03416E+01  1.99512E+01  2.02072E+01  2.15773E-01  1.30434E+00  7.86805E-04 -1.29443E+00 -4.54895E-04 -4.98863E-04  2.83716E-04  2.60233E-03  4.19522E+00  2.49124E-06  2.70814E-05 -3.02626E-05 -4.03145E-06  1.50000E+01
  2.00974E+01  2.01558E+01  2.01544E+01  6.88710E-02  1.11527E+00 -2.46050E-04 -9.47017E-01 -3.75387E-04 -4.91555E-04  2.53049E-04  2.88992E-03  3.45610E+00 -4.97826E-04  4.02454E-05 -3.73191E-05 -1.25157E-06  1.50000E+01
  2.00838E+01  2.01745E+01  2.01655E+01  5.35897E-02  1.10106E+00 -2.93954E-04 -1.08891E+00 -4.46184E-04 -5.90536E-04  3.33264E-04  2.80978E-03  3.38678E+00 -6.97700E-04  4.57329E-05 -4.23643E-05 -2.25479E-06  1.50000E+01