 TITLE="3D TRIANGULAR SURFACE DATA"
VARIABLES="X","Y","Z","U","V","W","P", "Fex", "Fey", "Fez","Finx","Finy","Finz","WSSx","WSSy","WSSz","AMForce"
 ZONE T="unstruc"N=        1757 E=        3355 F=FEPOINT  ET=TRIANGLE
  2.03076E+01  2.02757E+01  2.00978E+01  1.57295E-01 -1.21950E+00 -2.92177E-03  1.10549E+00 -6.56288E-04  6.30448E-04  1.50844E-04  1.39387E-02 -5.05460E+00 -9.01572E-04  3.51968E-05  4.28171E-05 -4.64547E-06  1.50000E+01
  2.03224E+01  2.02928E+01  2.00981E+01  1.45235E-01 -1.20216E+00 -2.62243E-03  1.14733E+00 -3.15838E-04  3.11184E-04  7.10751E-05  4.87607E-03 -2.33830E+00 -3.00956E-03  1.70050E-05  2.01609E-05 -2.37431E-06  1.50000E+01
  2.03175E+01  2.02920E+01  2.00768E+01  1.46469E-01 -1.20151E+00 -2.52626E-03  1.18974E+00 -4.92087E-04  4.83869E-04  8.55661E-05  1.40271E-02 -3.45366E+00 -4.56828E-03  2.52041E-05  2.95164E-05 -3.37315E-06  1.50000E+01
  2.03088E+01  2.02674E+01  2.01290E+01  1.61268E-01 -1.22783E+00 -3.97721E-03  1.14940E+00 -5.20695E-04  4.94965E-04  1.57802E-04  9.76861E-03 -4.28895E+00 -1.85342E-03  2.95942E-05  3.70108E-05 -3.75071E-06  1.50000E+01
  2.03218E+01  2.02861E+01  2.01192E+01  1.51389E-01 -1.21090E+00 -2.68382E-03  1.14157E+00 -4.38429E-04  4.26640E-04  1.21958E-04  1.16727E-02 -3.45840E+00 -2.93858E-04  2.47350E-05  3.00959E-05 -3.30674E-06  1.50000E+01
  2.03339E+01  2.03027E+01  2.01102E+01  1.35365E-01 -1.18913E+00 -1.23751E-03  1.16712E+00 -3.87179E-04  3.92037E-04  9.71205E-05  1.28319E-02 -2.92788E+00 -3.53551E-03  2.20525E-05  2.57494E-05 -3.37241E-06  1.50000E+01
  2.03316E+01  2.03060E+01  2.00862E+01  1.31122E-01 -1.18244E+00 -8.05257E-04  1.21962E+00 -4.17108E-04  4.25717E-04  7.99387E-05  1.30044E-02 -2.92857E+00 -1.23509E-03  2.24567E-05  2.55415E-05 -3.29117E-06  1.50000E+01
  2.03142E+01  2.02927E+01  2.00497E+01  1.45601E-01 -1.19969E+00 -1.53612E-03  1.23026E+00 -5.31201E-04  5.27486E-04  6.07919E-05  1.31749E-02 -3.75718E+00 -1.26060E-03  2.73392E-05  3.13181E-05 -2.88814E-06  1.50000E+01
  2.03021E+01  2.02764E+01  2.00663E+01  1.56571E-01 -1.21723E+00 -1.88379E-03  1.18386E+00 -5.98825E-04  5.77217E-04  9.48327E-05  9.95243E-03 -4.29390E+00  6.49393E-04  3.00628E-05  3.57057E-05 -3.63355E-06  1.50000E+01
  2.02994E+01  2.02773E+01  2.00374E+01  1.55882E-01 -1.21559E+00 -1.10141E-03  1.21815E+00 -5.64873E-04  5.47168E-04  5.05227E-05  9.68241E-03 -4.03126E+00  6.45224E-05  2.80501E-05  3.26645E-05 -2.16528E-06  1.50000E+01
  2.03239E+01  2.02794E+01  2.01454E+01  1.56175E-01 -1.21943E+00 -3.59640E-03  1.15429E+00 -4.63948E-04  4.44815E-04  1.56396E-04  1.16644E-02 -3.74658E+00 -1.54275E-03  2.65100E-05  3.29925E-05 -3.27408E-06  1.50000E+01
  2.03359E+01  2.02975E+01  2.01347E+01  1.41798E-01 -1.19819E+00 -1.57712E-03  1.21518E+00 -4.31238E-04  4.29181E-04  1.32435E-04  1.48490E-02 -3.39859E+00 -2.76262E-03  2.54280E-05  3.05205E-05 -3.62125E-06  1.50000E+01
  2.02769E+01  2.02390E+01  2.00970E+01  1.65022E-01 -1.24147E+00 -2.72189E-03  1.05329E+00 -5.29583E-04  4.96739E-04  1.28469E-04  5.43423E-03 -4.40608E+00 -3.94689E-04  2.93031E-05  3.66922E-05 -3.51757E-06  1.50000E+01
  2.02739E+01  2.02425E+01  2.00680E+01  1.64546E-01 -1.23845E+00 -1.81161E-03  1.06832E+00 -5.43563E-04  5.12084E-04  9.25302E-05  5.35436E-03 -4.33079E+00 -2.67872E-04  2.88549E-05  3.53151E-05 -2.95878E-06  1.50000E+01
  2.02613E+01  2.02241E+01  2.00822E+01  1.64170E-01 -1.24590E+00 -1.92385E-03  1.03765E+00 -4.99591E-04  4.68144E-04  1.05782E-04  4.11325E-03 -4.26005E+00 -1.60639E-04  2.82337E-05  3.51663E-05 -2.76300E-06  1.50000E+01
  2.02930E+01  2.02539E+01  2.01123E+01  1.64109E-01 -1.23529E+00 -3.52079E-03  1.10326E+00 -5.63701E-04  5.31598E-04  1.53107E-04  7.74785E-03 -4.65438E+00 -1.01559E-03  3.14001E-05  3.93344E-05 -4.01210E-06  1.50000E+01
  2.02804E+01  2.02339E+01  2.01255E+01  1.65543E-01 -1.24569E+00 -3.62973E-03  1.05147E+00 -5.02002E-04  4.66563E-04  1.56677E-04  5.33176E-03 -4.30571E+00 -5.47740E-04  2.88794E-05  3.71343E-05 -3.67120E-06  1.50000E+01
  2.02963E+01  2.02475E+01  2.01410E+01  1.65590E-01 -1.24108E+00 -4.52369E-03  1.06251E+00 -4.92871E-04  4.59521E-04  1.68014E-04  6.94159E-03 -4.23000E+00 -1.39923E-03  2.88617E-05  3.71858E-05 -3.61130E-06  1.50000E+01
  2.02897E+01  2.02583E+01  2.00825E+01  1.62787E-01 -1.23102E+00 -2.48827E-03  1.07831E+00 -5.99230E-04  5.68493E-04  1.20284E-04  7.73498E-03 -4.65821E+00 -7.16652E-04  3.15034E-05  3.84945E-05 -3.78888E-06  1.50000E+01
  2.02866E+01  2.02604E+01  2.00530E+01  1.62077E-01 -1.22853E+00 -1.47348E-03  1.12267E+00 -5.84857E-04  5.54883E-04  7.57812E-05  7.37922E-03 -4.26203E+00 -9.45091E-05  2.87364E-05  3.43917E-05 -2.71979E-06  1.50000E+01
  2.03455E+01  2.03185E+01  2.00983E+01  1.11498E-01 -1.15905E+00  1.94695E-03  1.22621E+00 -4.48560E-04  4.78137E-04  9.73199E-05  1.95883E-02 -3.15366E+00 -3.16865E-03  2.55952E-05  2.82382E-05 -4.27040E-06  1.50000E+01
  2.03432E+01  2.03212E+01  2.00727E+01  1.06127E-01 -1.15128E+00  1.66755E-03  1.29107E+00 -4.74611E-04  5.12398E-04  7.55339E-05  2.02078E-02 -3.24723E+00 -1.94760E-03  2.70858E-05  2.90434E-05 -3.85161E-06  1.50000E+01
  2.03479E+01  2.03145E+01  2.01235E+01  1.18740E-01 -1.16910E+00  1.75289E-03  1.19606E+00 -4.26712E-04  4.48681E-04  1.17297E-04  1.87430E-02 -3.26708E+00 -4.37998E-03  2.59585E-05  2.96263E-05 -4.54621E-06  1.50000E+01
  2.03287E+01  2.03074E+01  2.00611E+01  1.29492E-01 -1.17860E+00 -9.06433E-04  1.21533E+00 -4.89889E-04  5.03344E-04  6.64042E-05  1.77116E-02 -3.39683E+00 -2.36263E-03  2.62670E-05  2.93119E-05 -3.29257E-06  1.50000E+01
  2.03413E+01  2.03228E+01  2.00464E+01  1.02658E-01 -1.14598E+00  8.06486E-04  1.10280E+00 -5.10329E-04  5.55632E-04  5.07941E-05  2.17918E-02 -3.40820E+00 -1.79785E-03  2.90241E-05  3.04414E-05 -2.97321E-06  1.50000E+01
  2.02849E+01  2.02615E+01  2.00241E+01  1.61654E-01 -1.22725E+00 -6.11776E-04  1.19184E+00 -5.68078E-04  5.39981E-04  3.41689E-05  7.02780E-03 -4.09495E+00  1.48415E-04  2.73395E-05  3.22418E-05 -1.49946E-06  1.50000E+01
  2.03124E+01  2.02933E+01  2.00218E+01  1.44790E-01 -1.19843E+00 -8.49438E-04  1.18626E+00 -5.31949E-04  5.31862E-04  2.65162E-05  1.28648E-02 -3.81415E+00 -3.00171E-04  2.76544E-05  3.11731E-05 -1.42552E-06  1.50000E+01
  2.02982E+01  2.02777E+01  2.00089E+01  1.55516E-01 -1.21493E+00 -3.68857E-04  1.21283E+00 -5.43666E-04  5.29089E-04  1.21013E-05  9.32838E-03 -3.95156E+00  2.19052E-04  2.71720E-05  3.13278E-05 -4.98720E-07  1.50000E+01
  2.02846E+01  2.02276E+01  2.01531E+01  1.65816E-01 -1.25101E+00 -4.49096E-03  1.01922E+00 -4.60472E-04  4.24268E-04  1.75322E-04  5.19724E-03 -4.15233E+00 -8.00550E-04  2.81588E-05  3.70718E-05 -3.23066E-06  1.50000E+01
  2.03006E+01  2.02406E+01  2.01682E+01  1.66548E-01 -1.24782E+00 -5.37052E-03  1.04766E+00 -4.53396E-04  4.16843E-04  1.84555E-04  6.33112E-03 -4.05635E+00 -1.30202E-03  2.74246E-05  3.61693E-05 -2.98939E-06  1.50000E+01
  2.06436E+01  2.04496E+01  1.96967E+01 -4.10710E-01 -2.78704E-01 -2.15981E-01  9.03229E-01 -1.01119E-04  6.03836E-04  6.02339E-05 -2.01993E-02 -8.31732E-01 -8.27339E-03  3.60068E-05  8.34855E-06  2.85905E-06  1.50000E+01
  2.06230E+01  2.04438E+01  1.97088E+01 -4.05076E-01 -2.93628E-01 -2.10654E-01  8.64307E-01 -1.08628E-04  6.10171E-04  4.63385E-05 -2.29205E-02 -8.76279E-01 -1.07492E-02  3.43936E-05  8.33855E-06  1.55975E-06  1.50000E+01
  2.06424E+01  2.04466E+01  1.97232E+01 -4.34672E-01 -1.76526E-01 -1.92344E-01  7.95500E-01 -7.46366E-05  5.85757E-04  7.28723E-05 -1.57228E-02 -5.08938E-01 -2.82408E-03  3.55062E-05  6.72575E-06  1.35214E-06  1.50000E+01
  2.06217E+01  2.04412E+01  1.97354E+01 -4.30475E-01 -1.87533E-01 -1.87982E-01  7.12726E-01 -6.74047E-05  5.38505E-04  5.52362E-05 -1.83073E-02 -5.39287E-01 -4.79216E-03  3.44173E-05  6.73081E-06  5.27712E-07  1.50000E+01
  2.06413E+01  2.04430E+01  1.97496E+01 -4.52842E-01 -8.82119E-02 -1.67920E-01  6.41057E-01 -3.47628E-05  4.64240E-04  6.59311E-05 -1.16249E-02 -2.33445E-01  9.07606E-04  3.52757E-05  5.38311E-06  8.36307E-07  1.50000E+01
  2.07056E+01  2.04685E+01  1.96610E+01 -4.20973E-01 -2.63324E-01 -2.31727E-01  5.27242E-01 -3.79781E-05  3.18080E-04  4.71296E-05 -1.52669E-02 -7.92987E-01 -3.93594E-03  3.60086E-05  8.46121E-06  2.11781E-06  1.50000E+01
  2.06849E+01  2.04620E+01  1.96727E+01 -4.18256E-01 -2.64689E-01 -2.26320E-01  5.78627E-01 -5.71502E-05  3.99822E-04  5.22695E-05 -1.63248E-02 -7.94150E-01 -4.85594E-03  3.45585E-05  8.14462E-06  8.18848E-07  1.50000E+01
  2.07044E+01  2.04641E+01  1.96871E+01 -4.42602E-01 -1.69917E-01 -2.06525E-01  4.79602E-01 -2.58930E-05  3.12878E-04  5.43527E-05 -1.12309E-02 -5.01224E-01  2.06542E-04  3.60398E-05  7.43055E-06  2.27592E-07  1.50000E+01
  2.03509E+01  2.03095E+01  2.01490E+01  1.26997E-01 -1.18070E+00  1.31740E-03  1.32389E+00 -4.32281E-04  4.45126E-04  1.43193E-04  1.80955E-02 -3.45671E+00 -4.32230E-03  2.70794E-05  3.18202E-05 -4.20757E-06  1.50000E+01
  2.07035E+01  2.04591E+01  1.97131E+01 -4.59036E-01 -9.01732E-02 -1.81320E-01  3.72853E-01 -7.74168E-06  2.72171E-04  5.20309E-05 -7.94553E-03 -2.53993E-01  2.64886E-03  3.76519E-05  6.67453E-06 -2.88334E-07  1.50000E+01
  2.07242E+01  2.04652E+01  1.97013E+01 -4.60914E-01 -9.40145E-02 -1.86619E-01  3.62914E-01 -2.31928E-06  2.25978E-04  4.50959E-05 -7.44922E-03 -2.69179E-01  2.73695E-03  3.80944E-05  7.25290E-06 -7.59944E-07  1.50000E+01
  2.03549E+01  2.03377E+01  2.00321E+01  6.31603E-02 -1.09951E+00  2.17716E-03  1.12996E+00 -5.66216E-04  6.60823E-04  3.74819E-05  2.43469E-02 -3.31649E+00 -1.25029E-03  3.15861E-05  3.06137E-05 -2.27540E-06  1.50000E+01
  2.03402E+01  2.03236E+01  2.00194E+01  1.00506E-01 -1.14308E+00 -1.76851E-04  1.07314E+00 -5.47337E-04  5.96742E-04  2.19597E-05  2.12875E-02 -3.49064E+00 -8.29039E-04  2.97046E-05  3.07054E-05 -1.55514E-06  1.50000E+01
  2.03120E+01  2.02603E+01  2.01566E+01  1.63838E-01 -1.23549E+00 -4.92210E-03  1.09546E+00 -4.68378E-04  4.38484E-04  1.73293E-04  8.41100E-03 -3.99629E+00 -1.77033E-03  2.74963E-05  3.53588E-05 -3.28106E-06  1.50000E+01
  2.03165E+01  2.02532E+01  2.01830E+01  1.65682E-01 -1.24366E+00 -5.82300E-03  1.07823E+00 -4.40550E-04  4.06089E-04  1.90538E-04  7.59072E-03 -3.93756E+00 -1.68447E-03  2.67575E-05  3.52579E-05 -2.79162E-06  1.50000E+01
  2.03277E+01  2.02727E+01  2.01717E+01  1.59850E-01 -1.22841E+00 -4.64573E-03  1.10633E+00 -4.51761E-04  4.26054E-04  1.79693E-04  1.02432E-02 -3.80540E+00 -2.15081E-03  2.67018E-05  3.40811E-05 -2.94668E-06  1.50000E+01
  2.02842E+01  2.02615E+01  1.99956E+01  1.61597E-01 -1.22708E+00  1.53380E-04  1.21256E+00 -5.52837E-04  5.26133E-04 -5.39227E-06  6.86470E-03 -4.00590E+00  3.03942E-04  2.65054E-05  3.11165E-05  2.26709E-07  1.50000E+01
  2.03118E+01  2.02932E+01  1.99938E+01  1.44676E-01 -1.19843E+00 -3.40357E-04  1.08485E+00 -5.34396E-04  5.34666E-04 -7.36957E-06  1.24521E-02 -3.80772E+00  2.57695E-04  2.74547E-05  3.08182E-05  2.44478E-07  1.50000E+01
  2.02980E+01  2.02771E+01  1.99808E+01  1.55751E-01 -1.21549E+00  3.05722E-04  1.21497E+00 -5.46560E-04  5.30879E-04 -2.48458E-05  9.12722E-03 -3.90132E+00  4.46967E-04  2.69500E-05  3.11306E-05  1.14461E-06  1.50000E+01
  2.06604E+01  2.04391E+01  1.97897E+01 -4.79070E-01  4.63571E-02 -1.25559E-01  4.57101E-01  3.18799E-06  3.33019E-04  5.65659E-05 -5.05764E-03  1.74715E-01  4.18338E-03  3.67515E-05  3.76428E-06  4.41616E-07  1.50000E+01
  2.06811E+01  2.04435E+01  1.97773E+01 -4.80532E-01  4.07815E-02 -1.29908E-01  3.64226E-01  6.41946E-06  2.77499E-04  5.13347E-05 -4.38856E-03  1.52993E-01  4.24313E-03  3.69382E-05  4.27151E-06 -3.05554E-07  1.50000E+01
  2.06612E+01  2.04436E+01  1.97635E+01 -4.68629E-01 -1.40187E-02 -1.48043E-01  4.84561E-01 -9.32836E-06  3.61150E-04  6.11030E-05 -7.11370E-03 -9.99840E-03  3.53340E-03  3.58813E-05  4.57472E-06  4.69335E-07  1.50000E+01
  2.03603E+01  2.03309E+01  2.01112E+01  8.38698E-02 -1.12741E+00  7.11196E-03  1.24153E+00 -4.59680E-04  5.19015E-04  1.10617E-04  2.35041E-02 -3.25721E+00 -4.33219E-03  2.86444E-05  3.03993E-05 -5.70535E-06  1.50000E+01
  2.01078E+01  1.99739E+01  2.01911E+01  5.40260E-02 -1.24555E+00 -4.25578E-04  3.24462E-01 -6.81236E-05  1.46635E-04  6.63020E-05  1.41897E-03 -3.91003E+00 -1.79944E-04  4.36566E-05  5.84533E-05 -2.22417E-06  1.50000E+01
  2.00977E+01  1.99519E+01  2.02018E+01  4.06094E-02 -1.24242E+00 -2.63647E-04  3.02818E-01 -4.99288E-06  1.19598E-04  3.61297E-05  1.09351E-03 -3.90104E+00 -1.17665E-04  5.66165E-05  7.40277E-05 -1.04470E-06  1.50000E+01
  2.01152E+01  1.99634E+01  2.02147E+01  4.64935E-02 -1.25073E+00 -1.88874E-04 -1.55476E-01  1.76893E-04 -8.27693E-06 -8.60983E-05  9.05103E-04 -3.93732E+00  7.20065E-05  6.05645E-05  7.97414E-05  3.40470E-07  1.50000E+01
  2.07227E+01  2.04537E+01  1.97529E+01 -4.83256E-01  2.73550E-02 -1.39775E-01  2.08935E-01  1.70250E-05  1.64906E-04  3.45198E-05 -3.45971E-03  1.05003E-01  4.09965E-03  3.90768E-05  5.63058E-06 -1.01328E-06  1.50000E+01
  2.07434E+01  2.04595E+01  1.97409E+01 -4.84867E-01  2.14399E-02 -1.45273E-01  1.24235E-01  1.02136E-05  7.06178E-05  1.51972E-05 -1.48150E-02  8.63227E-02  1.33861E-02  2.01941E-05  3.18624E-06 -6.91992E-07  1.50000E+01
  2.07234E+01  2.04595E+01  1.97271E+01 -4.73356E-01 -2.80609E-02 -1.62386E-01  2.98979E-01  1.07964E-05  1.87050E-04  3.89297E-05 -5.06051E-03 -6.56483E-02  3.79283E-03  3.97039E-05  6.58452E-06 -9.64075E-07  1.50000E+01
  2.06620E+01  2.04480E+01  1.97373E+01 -4.55254E-01 -8.60100E-02 -1.72008E-01  5.65298E-01 -2.97676E-05  4.22636E-04  6.78727E-05 -9.99882E-03 -2.31866E-01  1.81019E-03  3.58415E-05  5.60933E-06  8.37497E-07  1.50000E+01
  2.06819E+01  2.04485E+01  1.97512E+01 -4.70252E-01 -1.76354E-02 -1.52401E-01  4.08326E-01 -4.50695E-06  3.09087E-04  5.73376E-05 -6.20191E-03 -2.61068E-02  3.76330E-03  3.67731E-05  5.08172E-06  2.82534E-08  1.50000E+01
  2.02846E+01  2.02605E+01  1.99676E+01  1.61951E-01 -1.22803E+00  8.66229E-04  1.15382E+00 -5.62657E-04  5.33234E-04 -4.41022E-05  6.83290E-03 -3.95399E+00  3.95899E-04  2.64664E-05  3.13167E-05  1.69176E-06  1.50000E+01
  2.02718E+01  2.02446E+01  2.00391E+01  1.64262E-01 -1.23659E+00 -9.25157E-04  1.10764E+00 -5.54652E-04  5.22006E-04  5.44025E-05  5.33050E-03 -4.19113E+00  2.62559E-05  2.76911E-05  3.32883E-05 -1.95565E-06  1.50000E+01
  2.02707E+01  2.02454E+01  2.00105E+01  1.64161E-01 -1.23581E+00 -1.37394E-04  1.15863E+00 -5.56276E-04  5.22698E-04  1.51919E-05  5.27173E-03 -4.09142E+00  1.86698E-04  2.67072E-05  3.18152E-05 -5.58869E-07  1.50000E+01
  2.06864E+01  2.04651E+01  1.96464E+01 -3.89210E-01 -3.74281E-01 -2.49168E-01  7.01561E-01 -8.35471E-05  4.36929E-04  3.98983E-05 -2.04270E-02 -1.14130E+00 -1.10774E-02  3.57749E-05  9.95133E-06  2.28333E-06  1.50000E+01
  2.06206E+01  2.04382E+01  1.97620E+01 -4.49655E-01 -9.53453E-02 -1.64061E-01  6.66592E-01 -3.63786E-05  4.80244E-04  5.92012E-05 -1.37786E-02 -2.50307E-01 -4.80291E-04  3.57122E-05  5.39312E-06  1.65867E-06  1.50000E+01
  2.06404E+01  2.04390E+01  1.97760E+01 -4.66664E-01 -1.32382E-02 -1.44069E-01  5.56754E-01 -1.28256E-05  4.11701E-04  6.25240E-05 -8.32909E-03 -2.15110E-03  3.02381E-03  3.63731E-05  4.35245E-06  1.12204E-06  1.50000E+01
  2.02589E+01  2.02270E+01  2.00537E+01  1.64177E-01 -1.24367E+00 -1.16150E-03  1.02517E+00 -5.09780E-04  4.78823E-04  7.07187E-05  4.07912E-03 -4.20822E+00 -5.74350E-05  2.76355E-05  3.37567E-05 -2.01459E-06  1.50000E+01
  2.02442E+01  2.02113E+01  2.00396E+01  1.62313E-01 -1.24734E+00 -6.42326E-04  1.00283E+00 -4.79218E-04  4.50253E-04  5.05294E-05  3.35732E-03 -4.13957E+00  8.76910E-06  2.68672E-05  3.27767E-05 -1.38858E-06  1.50000E+01
  2.02462E+01  2.02090E+01  2.00678E+01  1.62015E-01 -1.24897E+00 -1.24351E-03  1.01754E+00 -4.70615E-04  4.41828E-04  8.45781E-05  3.34599E-03 -4.17830E+00 -3.65236E-05  2.75259E-05  3.41194E-05 -2.20345E-06  1.50000E+01
  2.03581E+01  2.03342E+01  2.00852E+01  7.46724E-02 -1.11516E+00  6.25997E-03  1.38188E+00 -4.87603E-04  5.60696E-04  9.00251E-05  2.41977E-02 -3.22837E+00 -3.14390E-03  2.95418E-05  3.01360E-05 -4.94130E-06  1.50000E+01
  2.03562E+01  2.03364E+01  2.00589E+01  6.76381E-02 -1.10567E+00  4.57291E-03  1.34607E+00 -5.05905E-04  5.90211E-04  6.31342E-05  2.42049E-02 -3.26755E+00 -1.97817E-03  3.10854E-05  3.07526E-05 -3.88334E-06  1.50000E+01
  2.03694E+01  2.03517E+01  2.00179E+01  9.33381E-03 -1.03482E+00  2.37633E-03  1.20564E+00 -6.67542E-04  8.51549E-04  2.27939E-05  2.32131E-02 -3.14711E+00 -5.18873E-04  3.37394E-05  2.95404E-05 -1.48779E-06  1.50000E+01
  2.03543E+01  2.03380E+01  2.00049E+01  6.14365E-02 -1.09714E+00 -5.14083E-04  1.11009E+00 -5.99795E-04  6.99634E-04  4.90173E-06  2.39303E-02 -3.35162E+00 -2.98538E-04  3.17943E-05  3.05264E-05 -2.32692E-07  1.50000E+01
  2.06828E+01  2.04534E+01  1.97251E+01 -4.57225E-01 -8.71249E-02 -1.76453E-01  4.39674E-01 -1.75443E-05  3.36678E-04  6.01365E-05 -8.78951E-03 -2.40264E-01  2.36698E-03  3.65035E-05  5.95111E-06  7.77378E-07  1.50000E+01
  2.06838E+01  2.04579E+01  1.96990E+01 -4.40370E-01 -1.69097E-01 -2.01470E-01  4.90847E-01 -3.47625E-05  3.67234E-04  5.88020E-05 -1.22401E-02 -4.94728E-01 -3.76530E-04  3.54970E-05  6.99539E-06  6.13509E-07  1.50000E+01
  2.06024E+01  2.04380E+01  1.97211E+01 -3.97460E-01 -3.15504E-01 -2.04783E-01  7.27446E-01 -1.01361E-04  5.52052E-04  2.84251E-05 -2.60278E-02 -9.44141E-01 -1.36214E-02  3.34376E-05  8.53279E-06  1.44104E-06  1.50000E+01
  2.02686E+01  2.02141E+01  2.01382E+01  1.63815E-01 -1.25338E+00 -3.43920E-03  9.90193E-01 -4.55305E-04  4.21117E-04  1.60745E-04  4.15985E-03 -4.18251E+00 -3.17342E-04  2.80702E-05  3.68185E-05 -3.38041E-06  1.50000E+01
  2.02573E+01  2.01941E+01  2.01506E+01  1.59769E-01 -1.25929E+00 -3.06210E-03  9.70018E-01 -4.20815E-04  3.89514E-04  1.66953E-04  3.53737E-03 -4.14338E+00 -1.40588E-04  2.83758E-05  3.76208E-05 -2.76915E-06  1.50000E+01
  2.02734E+01  2.02074E+01  2.01652E+01  1.63109E-01 -1.25867E+00 -4.13551E-03  9.82797E-01 -4.24205E-04  3.89933E-04  1.79072E-04  4.20285E-03 -4.12618E+00 -4.33464E-04  2.82223E-05  3.76426E-05 -2.62466E-06  1.50000E+01
  2.07026E+01  2.04538E+01  1.97391E+01 -4.71757E-01 -2.27023E-02 -1.57183E-01  3.40602E-01  2.30754E-06  2.48430E-04  4.97288E-05 -5.50949E-03 -4.59489E-02  3.82021E-03  3.82504E-05  5.70340E-06 -4.26281E-08  1.50000E+01
  2.06246E+01  2.04455E+01  1.96821E+01 -3.71966E-01 -4.12533E-01 -2.29966E-01  8.75849E-01 -1.38768E-04  6.10314E-04  2.29355E-05 -2.64210E-02 -1.25939E+00 -1.76216E-02  3.62219E-05  1.08157E-05  3.59135E-06  1.50000E+01
  2.06041E+01  2.04391E+01  1.96943E+01 -3.62089E-01 -4.37509E-01 -2.22174E-01  7.61822E-01 -1.36443E-04  5.66996E-04  7.55519E-06 -2.87571E-02 -1.33980E+00 -2.03212E-02  3.32000E-05  1.05271E-05  2.64295E-06  1.50000E+01
  2.03325E+01  2.02655E+01  2.01976E+01  1.62877E-01 -1.23816E+00 -5.69611E-03  1.09753E+00 -4.31627E-04  4.00430E-04  1.96861E-04  9.16150E-03 -3.85586E+00 -2.28013E-03  2.64940E-05  3.47097E-05 -2.54830E-06  1.50000E+01
  2.03435E+01  2.02850E+01  2.01862E+01  1.53023E-01 -1.21915E+00 -3.47967E-03  1.13781E+00 -4.38696E-04  4.20518E-04  1.85198E-04  1.23084E-02 -3.72826E+00 -3.12341E-03  2.66816E-05  3.37767E-05 -3.06720E-06  1.50000E+01
  2.03219E+01  2.02454E+01  2.02089E+01  1.66924E-01 -1.25273E+00 -6.68622E-03  1.05650E+00 -4.13655E-04  3.75712E-04  2.03508E-04  7.03629E-03 -3.95753E+00 -1.68276E-03  2.64068E-05  3.54838E-05 -2.05477E-06  1.50000E+01
  2.03121E+01  2.02922E+01  1.99660E+01  1.45573E-01 -1.20001E+00  1.24103E-04  1.23012E+00 -5.43769E-04  5.41667E-04 -4.25837E-05  1.22164E-02 -3.79657E+00  6.83161E-04  2.76052E-05  3.12744E-05  2.02420E-06  1.50000E+01
  2.06643E+01  2.04557E+01  1.96846E+01 -4.14951E-01 -2.69463E-01 -2.21120E-01  5.75692E-01 -6.94748E-05  4.58469E-04  5.33589E-05 -1.80033E-02 -8.05852E-01 -6.29704E-03  3.45050E-05  7.96835E-06  1.69158E-06  1.50000E+01
  2.06658E+01  2.04584E+01  1.96582E+01 -3.85002E-01 -3.81735E-01 -2.43121E-01  5.99420E-01 -8.75405E-05  4.47748E-04  3.42671E-05 -2.20387E-02 -1.16306E+00 -1.28020E-02  3.41920E-05  9.64225E-06  1.66768E-06  1.50000E+01
  2.06452E+01  2.04519E+01  1.96701E+01 -3.79412E-01 -3.94210E-01 -2.36819E-01  6.72170E-01 -1.12498E-04  5.28870E-04  3.04306E-05 -2.41201E-02 -1.20152E+00 -1.50440E-02  3.44564E-05  9.87262E-06  3.04671E-06  1.50000E+01
  2.05838E+01  2.04326E+01  1.97065E+01 -3.49088E-01 -4.69858E-01 -2.12980E-01  8.28566E-01 -1.63802E-04  6.10724E-04 -1.09185E-05 -3.06591E-02 -1.44587E+00 -2.27826E-02  3.36437E-05  1.15377E-05  3.49946E-06  1.50000E+01
  2.03760E+01  2.03431E+01  2.01246E+01  4.73243E-02 -1.08584E+00  1.56326E-02  1.29317E+00 -4.51978E-04  5.47616E-04  1.19181E-04  2.42956E-02 -3.22736E+00 -4.60328E-03  3.02316E-05  3.04848E-05 -7.12367E-06  1.50000E+01
  2.03631E+01  2.03267E+01  2.01371E+01  9.46448E-02 -1.14178E+00  7.21422E-03  1.34555E+00 -4.34663E-04  4.81144E-04  1.29340E-04  2.21106E-02 -3.35183E+00 -5.23782E-03  2.84253E-05  3.13849E-05 -5.78466E-06  1.50000E+01
  2.02646E+01  2.02197E+01  2.01105E+01  1.64102E-01 -1.24913E+00 -2.69079E-03  1.01785E+00 -4.89640E-04  4.55182E-04  1.38868E-04  4.14060E-03 -4.24699E+00 -2.40640E-04  2.82986E-05  3.61402E-05 -3.23588E-06  1.50000E+01
  2.02491E+01  2.02052E+01  2.00958E+01  1.61567E-01 -1.25147E+00 -1.85872E-03  1.01670E+00 -4.65855E-04  4.34658E-04  1.17994E-04  3.40100E-03 -4.19082E+00 -7.72872E-05  2.78048E-05  3.52232E-05 -2.78148E-06  1.50000E+01
  2.01052E+01  1.99407E+01  2.02248E+01  3.25827E-02 -1.24785E+00  0.00000E+00 -5.17936E-01  1.21280E-04 -2.06291E-05 -6.02598E-05  6.58416E+00  4.66354E+01 -3.97745E+01  3.53098E-05  4.46722E-05  1.44973E-06  1.50000E+01
  2.07448E+01  2.04717E+01  1.96895E+01 -4.63015E-01 -9.77986E-02 -1.92328E-01  3.50252E-02  1.66220E-06  9.36888E-05  1.92691E-05 -2.41896E-02 -7.06312E-02  1.49929E-02  1.90674E-05  3.77804E-06 -4.75895E-08  1.50000E+01
  2.07251E+01  2.04705E+01  1.96754E+01 -4.44761E-01 -1.72295E-01 -2.11966E-01  2.67852E-01 -9.52224E-06  2.29555E-04  4.36563E-05 -1.07571E-02 -5.11691E-01  4.71369E-04  3.71610E-05  7.73513E-06  1.64683E-06  1.50000E+01
  2.06063E+01  2.04391E+01  1.96675E+01 -3.17811E-01 -5.68052E-01 -2.33163E-01  7.28329E-01 -1.62272E-04  5.49981E-04 -1.89048E-05 -2.80561E-02 -1.76831E+00 -2.56346E-02  3.62906E-05  1.43074E-05  5.35845E-06  1.50000E+01
  2.05860E+01  2.04320E+01  1.96797E+01 -3.02174E-01 -6.00801E-01 -2.21185E-01  7.97604E-01 -1.83355E-04  5.60930E-04 -3.65856E-05 -2.79630E-02 -1.87759E+00 -2.66710E-02  3.43198E-05  1.47779E-05  6.32709E-06  1.50000E+01
  2.02706E+01  2.02450E+01  1.99823E+01  1.64269E-01 -1.23605E+00  5.68346E-04  1.14698E+00 -5.50123E-04  5.16290E-04 -2.36207E-05  5.26292E-03 -4.02193E+00  2.41118E-04  2.62626E-05  3.13176E-05  9.37626E-07  1.50000E+01
  2.03666E+01  2.03216E+01  2.01630E+01  1.06287E-01 -1.15774E+00  6.65995E-03  1.33603E+00 -4.40800E-04  4.72966E-04  1.56262E-04  2.08667E-02 -3.46102E+00 -5.52637E-03  2.83416E-05  3.24535E-05 -5.26115E-06  1.50000E+01
  2.02895E+01  2.02203E+01  2.01798E+01  1.65580E-01 -1.25743E+00 -5.22193E-03  9.91370E-01 -4.28026E-04  3.90038E-04  1.91004E-04  5.00794E-03 -4.08022E+00 -8.27355E-04  2.76353E-05  3.70004E-05 -2.33268E-06  1.50000E+01
  2.03057E+01  2.02330E+01  2.01944E+01  1.66933E-01 -1.25551E+00 -6.12441E-03  1.03977E+00 -4.18377E-04  3.80027E-04  1.96384E-04  5.92435E-03 -4.01675E+00 -1.20674E-03  2.70049E-05  3.62857E-05 -2.20886E-06  1.50000E+01
  2.01180E+01  1.99956E+01  2.01801E+01  6.70711E-02 -1.24827E+00 -4.99727E-04  4.08686E-01 -1.03243E-04  1.60266E-04  7.77268E-05  1.56107E-03 -3.92851E+00 -1.64603E-04  3.77794E-05  5.02359E-05 -1.77581E-06  1.50000E+01
  2.01011E+01  1.99832E+01  2.01670E+01  6.06851E-02 -1.24127E+00 -6.33885E-04  4.18638E-01 -1.04146E-04  1.62716E-04  7.38568E-05  1.63496E-03 -3.88212E+00 -2.40392E-04  3.85486E-05  5.01016E-05 -1.12817E-06  1.50000E+01
  2.06677E+01  2.04601E+01  1.96316E+01 -3.46521E-01 -5.06215E-01 -2.60226E-01  6.51050E-01 -1.17669E-04  4.77634E-04  1.36232E-05 -2.45217E-02 -1.56435E+00 -1.99177E-02  3.66649E-05  1.24431E-05  4.03114E-06  1.50000E+01
  2.02299E+01  2.01954E+01  2.00257E+01  1.59270E-01 -1.24981E+00 -2.71642E-04  9.65719E-01 -4.53638E-04  4.27159E-04  3.21259E-05  2.94604E-03 -4.09456E+00  9.36320E-06  2.64522E-05  3.22477E-05 -8.26287E-07  1.50000E+01
  2.02314E+01  2.01936E+01  2.00537E+01  1.58844E-01 -1.25095E+00 -7.27319E-04  1.01383E+00 -4.48895E-04  4.22598E-04  6.59324E-05  2.92212E-03 -4.12354E+00  1.51672E-05  2.69919E-05  3.32923E-05 -1.61989E-06  1.50000E+01
  2.03735E+01  2.03466E+01  2.00983E+01  3.33559E-02 -1.06736E+00  1.40807E-02  1.39034E+00 -4.95410E-04  6.14381E-04  1.03164E-04  2.45546E-02 -3.16312E+00 -3.42850E-03  3.09406E-05  2.96125E-05 -5.89667E-06  1.50000E+01
  2.03716E+01  2.03492E+01  2.00717E+01  2.19001E-02 -1.05207E+00  1.12287E-02  1.56534E+00 -5.26808E-04  6.67717E-04  7.99962E-05  2.42189E-02 -3.13386E+00 -2.25645E-03  3.23712E-05  2.96872E-05 -4.55711E-06  1.50000E+01
  2.02626E+01  2.01868E+01  2.01772E+01  1.58117E-01 -1.26474E+00 -3.61067E-03  9.44101E-01 -3.90588E-04  3.59892E-04  1.81902E-04  3.53705E-03 -4.12353E+00 -2.54686E-04  2.88557E-05  3.87232E-05 -1.79928E-06  1.50000E+01
  2.02521E+01  2.01658E+01  2.01891E+01  1.51265E-01 -1.26960E+00 -3.00099E-03  8.98436E-01 -3.56170E-04  3.30730E-04  1.82072E-04  3.05512E-03 -4.11806E+00 -1.43714E-04  2.90532E-05  3.94663E-05 -1.55310E-06  1.50000E+01
  2.02686E+01  2.01785E+01  2.02032E+01  1.55796E-01 -1.27128E+00 -4.05799E-03  8.94263E-01 -3.60845E-04  3.30193E-04  1.92330E-04  3.47281E-03 -4.11495E+00 -3.43737E-04  2.85341E-05  3.91388E-05 -1.44729E-06  1.50000E+01
  2.05659E+01  2.04248E+01  1.96920E+01 -2.82615E-01 -6.39656E-01 -2.07127E-01  1.06523E+00 -2.26562E-04  6.38866E-04 -5.81684E-05 -2.65122E-02 -2.00803E+00 -2.66218E-02  3.72973E-05  1.76109E-05  8.47446E-06  1.50000E+01
  2.02573E+01  2.02286E+01  2.00252E+01  1.64212E-01 -1.24241E+00 -4.35542E-04  1.04083E+00 -5.24166E-04  4.91235E-04  3.42782E-05  4.11454E-03 -4.13530E+00  6.77042E-05  2.68659E-05  3.23973E-05 -1.10031E-06  1.50000E+01
  2.02568E+01  2.02289E+01  1.99970E+01  1.64287E-01 -1.24208E+00  2.24925E-04  1.04363E+00 -5.25728E-04  4.91764E-04 -3.47865E-06  4.16934E-03 -4.07135E+00  1.28457E-04  2.62677E-05  3.15540E-05  1.64848E-07  1.50000E+01
  2.03702E+01  2.03509E+01  2.00450E+01  1.36803E-02 -1.04092E+00  7.20912E-03  1.50312E+00 -5.95246E-04  7.60008E-04  5.46185E-05  2.35089E-02 -3.13303E+00 -1.25234E-03  3.38487E-05  3.01191E-05 -3.19324E-06  1.50000E+01
  2.06472E+01  2.04531E+01  1.96434E+01 -3.39479E-01 -5.20957E-01 -2.52309E-01  6.93965E-01 -1.29901E-04  4.92988E-04  3.36718E-06 -2.59370E-02 -1.61226E+00 -2.18854E-02  3.43840E-05  1.20739E-05  3.76134E-06  1.50000E+01
  2.06267E+01  2.04461E+01  1.96554E+01 -3.30075E-01 -5.41473E-01 -2.43411E-01  9.40837E-01 -1.67305E-04  5.89161E-04 -7.82231E-06 -2.72529E-02 -1.68010E+00 -2.39173E-02  3.61927E-05  1.33403E-05  4.67700E-06  1.50000E+01
  2.02528E+01  2.02003E+01  2.01235E+01  1.60867E-01 -1.25490E+00 -2.46942E-03  9.89002E-01 -4.48715E-04  4.16800E-04  1.46005E-04  3.47374E-03 -4.17251E+00 -9.81797E-05  2.80964E-05  3.64460E-05 -3.01709E-06  1.50000E+01
  2.02372E+01  2.01861E+01  2.01091E+01  1.57174E-01 -1.25564E+00 -1.67010E-03  9.78533E-01 -4.33427E-04  4.05188E-04  1.28291E-04  3.00508E-03 -4.14551E+00  1.95767E-05  2.78569E-05  3.57556E-05 -2.64676E-06  1.50000E+01
  2.04011E+01  2.03762E+01  1.99897E+01 -1.36248E-01 -8.36675E-01 -5.31865E-03  1.46072E+00 -6.74678E-04  1.13040E-03 -1.67683E-05  6.33356E-04 -2.57650E+00 -3.10885E-04  3.56768E-05  2.35352E-05  6.28976E-07  1.50000E+01
  2.03848E+01  2.03641E+01  1.99764E+01 -5.57845E-02 -9.51233E-01 -7.93420E-03  1.67454E+00 -7.67080E-04  1.09473E-03 -3.98329E-05  1.58991E-02 -2.93589E+00  1.73638E-04  3.57086E-05  2.77869E-05  1.80908E-06  1.50000E+01
  2.03847E+01  2.03646E+01  2.00038E+01 -5.84027E-02 -9.47863E-01  2.41057E-04  1.64438E+00 -7.66197E-04  1.09868E-03  3.04394E-06  1.55813E-02 -2.90471E+00  4.13627E-05  3.54167E-05  2.73551E-05 -1.77241E-07  1.50000E+01
  2.06497E+01  2.04530E+01  1.96168E+01 -2.90442E-01 -6.54976E-01 -2.59807E-01  7.33558E-01 -1.53667E-04  4.83754E-04 -2.50405E-05 -2.42171E-02 -2.05125E+00 -2.67896E-02  3.60588E-05  1.54420E-05  6.29306E-06  1.50000E+01
  2.03827E+01  2.03333E+01  2.01769E+01  7.95617E-02 -1.12898E+00  1.50396E-02  1.30601E+00 -4.50115E-04  5.07553E-04  1.69268E-04  2.30505E-02 -3.41209E+00 -6.34146E-03  2.95663E-05  3.27530E-05 -6.57982E-06  1.50000E+01
  2.03790E+01  2.03386E+01  2.01508E+01  6.30330E-02 -1.10665E+00  1.59122E-02  1.44765E+00 -4.44192E-04  5.20953E-04  1.42189E-04  2.38331E-02 -3.31564E+00 -5.65460E-03  3.01748E-05  3.19197E-05 -7.19915E-06  1.50000E+01
  2.02338E+01  2.01905E+01  2.00815E+01  1.58164E-01 -1.25288E+00 -1.19512E-03  1.02389E+00 -4.44890E-04  4.17108E-04  9.88109E-05  2.94409E-03 -4.14204E+00  2.22106E-05  2.75898E-05  3.46777E-05 -2.40802E-06  1.50000E+01
  2.02851E+01  2.01910E+01  2.02173E+01  1.59796E-01 -1.27260E+00 -5.19788E-03  9.40702E-01 -3.61683E-04  3.27211E-04  1.99892E-04  3.97462E-03 -4.10102E+00 -5.88035E-04  2.79361E-05  3.84997E-05 -1.13824E-06  1.50000E+01
  2.03016E+01  2.02034E+01  2.02314E+01  1.63128E-01 -1.27352E+00 -6.32034E-03  9.10094E-01 -3.61769E-04  3.23792E-04  2.07179E-04  4.56820E-03 -4.07986E+00 -8.81178E-04  2.72619E-05  3.78501E-05 -1.05239E-06  1.50000E+01
  2.02952E+01  2.02123E+01  2.02059E+01  1.64714E-01 -1.26494E+00 -5.84024E-03  1.00438E+00 -3.91333E-04  3.53581E-04  1.99657E-04  4.78937E-03 -4.06910E+00 -8.48292E-04  2.73844E-05  3.73307E-05 -1.65148E-06  1.50000E+01
  2.00845E+01  1.99704E+01  2.01540E+01  5.40934E-02 -1.23426E+00 -7.52233E-04  4.33530E-01 -8.76809E-05  1.51385E-04  5.96571E-05  1.73430E-03 -3.82339E+00 -3.04022E-04  3.96165E-05  5.07593E-05 -7.45180E-07  1.50000E+01
  2.00738E+01  1.99497E+01  2.01652E+01  4.14946E-02 -1.23026E+00 -6.50180E-04  3.54633E-01  4.62089E-06  8.71820E-05  1.59214E-05  1.46998E-03 -3.78248E+00 -3.19679E-04  4.28621E-05  5.54700E-05 -2.41422E-06  1.50000E+01