 TITLE="3D TRIANGULAR SURFACE DATA"
VARIABLES="X","Y","Z","U","V","W","P", "Fex", "Fey", "Fez","Finx","Finy","Finz","WSSx","WSSy","WSSz","AMForce"
 ZONE T="unstruc"N=        1757 E=        3355 F=FEPOINT  ET=TRIANGLE
  2.03866E+01  2.00133E+01  2.00988E+01  2.86772E-01  1.23897E+00  1.94753E-03 -1.12516E+00 -5.23528E-04 -6.62536E-04  1.69325E-04  3.58229E-03  5.12484E+00  2.04887E-04  2.62382E-05 -2.28615E-05 -1.32035E-06  1.50000E+01
  2.04039E+01  1.99985E+01  2.00990E+01  2.96842E-01  1.25428E+00  2.04768E-03 -1.12456E+00 -2.49052E-04 -3.11101E-04  7.83360E-05  2.95221E-03  2.43167E+00 -5.25222E-04  1.24319E-05 -1.10203E-05 -8.21150E-07  1.50000E+01
  2.03987E+01  1.99979E+01  2.00776E+01  2.96835E-01  1.24913E+00  1.97321E-03 -1.12204E+00 -3.66454E-04 -4.60223E-04  8.96967E-05  1.74662E-03  3.58148E+00  1.21379E-03  1.79172E-05 -1.56411E-05 -9.14956E-07  1.50000E+01
  2.03868E+01  2.00228E+01  2.01302E+01  2.80331E-01  1.24073E+00  2.39052E-03 -1.13473E+00 -4.41807E-04 -5.56151E-04  1.86435E-04  2.04758E-03  4.32886E+00  6.49642E-04  2.28714E-05 -2.02926E-05 -1.41052E-06  1.50000E+01
  2.04025E+01  2.00059E+01  2.01203E+01  2.91676E-01  1.25452E+00  2.14364E-03 -1.13025E+00 -3.66888E-04 -4.56572E-04  1.41389E-04  1.01417E-03  3.57341E+00 -1.62601E-03  1.87437E-05 -1.68573E-05 -1.40313E-06  1.50000E+01
  2.04167E+01  1.99906E+01  2.01113E+01  3.01721E-01  1.26631E+00  2.53753E-03 -1.13027E+00 -3.17442E-04 -3.93172E-04  1.10479E-04  1.64312E-03  3.10374E+00  3.88529E-04  1.60307E-05 -1.44792E-05 -1.34593E-06  1.50000E+01
  2.04147E+01  1.99861E+01  2.00872E+01  3.04514E-01  1.26309E+00  2.08237E-03 -1.12746E+00 -3.17852E-04 -3.95696E-04  8.54883E-05  2.27319E-03  3.11394E+00 -5.51554E-04  1.55537E-05 -1.37708E-05 -9.98101E-07  1.50000E+01
  2.03953E+01  1.99961E+01  2.00503E+01  2.97714E-01  1.24535E+00  1.34842E-03 -1.11486E+00 -3.94675E-04 -4.99436E-04  6.38936E-05  1.84083E-03  3.88923E+00  3.64513E-04  1.85883E-05 -1.59426E-05 -6.04378E-07  1.50000E+01
  2.03811E+01  2.00109E+01  2.00670E+01  2.88108E-01  1.23286E+00  1.37136E-03 -1.10849E+00 -4.40145E-04 -5.62092E-04  9.88914E-05  2.09416E-03  4.34137E+00 -2.98187E-04  2.15262E-05 -1.83876E-05 -8.00807E-07  1.50000E+01
  2.03783E+01  2.00090E+01  2.00378E+01  2.89215E-01  1.22972E+00  8.01403E-04 -1.10542E+00 -4.08709E-04 -5.23428E-04  5.19137E-05  2.09384E-03  4.07035E+00 -7.77957E-05  1.91512E-05 -1.61460E-05 -3.14423E-07  1.50000E+01
  2.04039E+01  2.00141E+01  2.01467E+01  2.86390E-01  1.25766E+00  2.66072E-03 -1.14255E+00 -3.96682E-04 -4.91101E-04  1.84681E-04  1.53457E-03  3.85635E+00 -2.58032E-04  2.06748E-05 -1.88754E-05 -1.66058E-06  1.50000E+01
  2.04183E+01  1.99973E+01  2.01360E+01  2.97364E-01  1.26966E+00  2.76090E-03 -1.14159E+00 -3.68674E-04 -4.53545E-04  1.55920E-04  9.92310E-04  3.58908E+00 -4.83043E-04  1.90257E-05 -1.75311E-05 -1.82086E-06  1.50000E+01
  2.03501E+01  2.00440E+01  2.00980E+01  2.65205E-01  1.20358E+00  1.42579E-03 -1.11027E+00 -4.32596E-04 -5.61223E-04  1.47854E-04  2.42862E-03  4.26847E+00  3.36561E-05  2.22333E-05 -1.87299E-05 -5.01841E-07  1.50000E+01
  2.03475E+01  2.00393E+01  2.00688E+01  2.68460E-01  1.20049E+00  9.99324E-04 -1.08255E+00 -4.21259E-04 -5.49821E-04  1.02005E-04  2.51150E-03  4.19478E+00 -6.79253E-06  2.10743E-05 -1.75342E-05 -3.26740E-07  1.50000E+01
  2.03319E+01  2.00553E+01  2.00831E+01  2.56900E-01  1.18468E+00  9.96578E-04 -1.08830E+00 -4.05938E-04 -5.35087E-04  1.21716E-04  2.57397E-03  4.04876E+00  8.53035E-06  2.11573E-05 -1.74531E-05 -2.15751E-07  1.50000E+01
  2.03688E+01  2.00327E+01  2.01134E+01  2.73364E-01  1.22257E+00  1.88295E-03 -1.11444E+00 -4.68576E-04 -5.98702E-04  1.78414E-04  2.85437E-03  4.60157E+00 -6.69137E-05  2.41314E-05 -2.08469E-05 -9.91519E-07  1.50000E+01
  2.03530E+01  2.00506E+01  2.01267E+01  2.60529E-01  1.20724E+00  1.74188E-03 -1.11718E+00 -4.24035E-04 -5.46107E-04  1.85943E-04  2.35084E-03  4.17030E+00 -7.50903E-05  2.28351E-05 -1.95335E-05 -5.89163E-07  1.50000E+01
  2.03713E+01  2.00408E+01  2.01423E+01  2.67767E-01  1.22626E+00  2.23141E-03 -1.13387E+00 -4.25929E-04 -5.39159E-04  2.02652E-04  2.10752E-03  4.17658E+00  1.38260E-04  2.27769E-05 -2.00321E-05 -1.03223E-06  1.50000E+01
  2.03660E+01  2.00270E+01  2.00834E+01  2.77206E-01  1.21896E+00  1.44716E-03 -1.11178E+00 -4.66979E-04 -6.00539E-04  1.32754E-04  2.54382E-03  4.60710E+00  1.32456E-05  2.32716E-05 -1.97689E-05 -7.45848E-07  1.50000E+01
  2.03631E+01  2.00238E+01  2.00536E+01  2.79266E-01  1.21556E+00  9.08440E-04 -1.09675E+00 -4.23059E-04 -5.46264E-04  7.81070E-05  2.25183E-03  4.21198E+00 -1.20093E-04  2.03336E-05 -1.70415E-05 -3.50305E-07  1.50000E+01
  2.04300E+01  1.99757E+01  2.00994E+01  3.10940E-01  1.27660E+00  2.61927E-03 -1.12857E+00 -3.52202E-04 -4.35733E-04  1.06610E-04  1.83581E-03  3.45150E+00  1.13285E-04  1.75997E-05 -1.58470E-05 -1.51391E-06  1.50000E+01
  2.04279E+01  1.99718E+01  2.00736E+01  3.13110E-01  1.27339E+00  2.04428E-03 -1.12994E+00 -3.63916E-04 -4.52325E-04  8.10887E-05  2.10326E-03  3.56854E+00 -2.29269E-04  1.77242E-05 -1.56822E-05 -1.19558E-06  1.50000E+01
  2.04323E+01  1.99811E+01  2.01248E+01  3.07677E-01  1.28042E+00  3.07096E-03 -1.13349E+00 -3.63350E-04 -4.46273E-04  1.38016E-04  1.72206E-03  3.55808E+00  2.04433E-04  1.85034E-05 -1.70425E-05 -1.91381E-06  1.50000E+01
  2.04118E+01  1.99837E+01  2.00618E+01  3.05692E-01  1.25984E+00  1.73716E-03 -1.11891E+00 -3.68743E-04 -4.61068E-04  7.03390E-05  1.42665E-03  3.61535E+00  2.86015E-04  1.74910E-05 -1.52658E-05 -8.38905E-07  1.50000E+01
  2.04260E+01  1.99693E+01  2.00470E+01  3.14336E-01  1.27095E+00  1.49579E-03 -1.12168E+00 -3.82541E-04 -4.76464E-04  5.42274E-05  1.86936E-03  3.75598E+00  1.15714E-04  1.79982E-05 -1.57177E-05 -8.23010E-07  1.50000E+01
  2.03614E+01  2.00221E+01  2.00244E+01  2.80397E-01  1.21354E+00  3.61876E-04 -1.07891E+00 -4.05924E-04 -5.24957E-04  3.45392E-05  2.42059E-03  4.04430E+00 -1.18494E-04  1.87096E-05 -1.55624E-05 -1.12922E-07  1.50000E+01
  2.03935E+01  1.99949E+01  2.00221E+01  2.98404E-01  1.24324E+00  6.56576E-04 -1.10630E+00 -3.97286E-04 -5.03919E-04  2.86385E-05  2.12900E-03  3.94569E+00  1.04762E-04  1.81466E-05 -1.54133E-05 -2.74709E-07  1.50000E+01
  2.03771E+01  2.00082E+01  2.00090E+01  2.89729E-01  1.22828E+00  1.86783E-04 -1.09613E+00 -3.98813E-04 -5.11318E-04  1.24946E-05  2.35722E-03  3.98770E+00 -6.79433E-05  1.81918E-05 -1.52615E-05 -7.26701E-08  1.50000E+01
  2.03563E+01  2.00587E+01  2.01545E+01  2.54689E-01  1.21156E+00  1.97638E-03 -1.14085E+00 -4.11310E-04 -5.23843E-04  2.18733E-04  2.15534E-03  4.01998E+00 -1.80644E-05  2.27136E-05 -1.96884E-05 -4.47896E-07  1.50000E+01
  2.03747E+01  2.00496E+01  2.01696E+01  2.61590E-01  1.23093E+00  2.41508E-03 -1.15281E+00 -4.10131E-04 -5.13782E-04  2.32212E-04  2.00472E-03  3.99929E+00  5.11807E-05  2.27321E-05 -2.01918E-05 -6.66908E-07  1.50000E+01
  2.07043E+01  1.98345E+01  1.96687E+01  3.38437E-01  1.46835E+00 -5.09538E-02 -8.12552E-01 -2.62528E-04 -3.56769E-04 -2.12878E-04  5.26718E-03  4.62409E+00  2.06675E-03  2.90955E-05 -3.50161E-05  1.23307E-05  1.50000E+01
  2.06860E+01  1.98408E+01  1.96838E+01  3.43717E-01  1.45707E+00 -4.19358E-02 -9.03220E-01 -2.90844E-04 -3.75614E-04 -2.19868E-04  5.32594E-03  4.58447E+00  2.20546E-03  2.80544E-05 -3.39083E-05  1.15670E-05  1.50000E+01
  2.06980E+01  1.98222E+01  1.96956E+01  3.37318E-01  1.44386E+00 -5.08718E-02 -7.70932E-01 -2.64191E-04 -3.63861E-04 -1.93944E-04  5.80401E-03  4.54324E+00  2.19751E-03  2.96358E-05 -3.51487E-05  1.37094E-05  1.50000E+01
  2.06801E+01  1.98290E+01  1.97109E+01  3.43893E-01  1.43534E+00 -4.12967E-02 -8.07391E-01 -2.87661E-04 -3.79102E-04 -1.97564E-04  5.85048E-03  4.51329E+00  2.30677E-03  2.84720E-05 -3.35129E-05  1.23186E-05  1.50000E+01
  2.06923E+01  1.98109E+01  1.97230E+01  3.35750E-01  1.42048E+00 -4.98952E-02 -7.71978E-01 -2.54193E-04 -3.57331E-04 -1.67276E-04  6.34618E-03  4.46660E+00  2.28723E-03  3.00215E-05 -3.45808E-05  1.45117E-05  1.50000E+01
  2.07610E+01  1.98188E+01  1.96243E+01  3.20927E-01  1.50879E+00 -8.24062E-02 -4.22541E-01 -1.04749E-04 -2.10773E-04 -1.17209E-04  4.28077E-03  4.76147E+00  3.18211E-04  3.20840E-05 -3.89091E-05  1.70784E-05  1.50000E+01
  2.07417E+01  1.98234E+01  1.96389E+01  3.26603E-01  1.49382E+00 -7.15915E-02 -6.09899E-01 -1.73644E-04 -2.81021E-04 -1.68807E-04  4.68085E-03  4.71151E+00  1.10325E-03  3.06249E-05 -3.68814E-05  1.48661E-05  1.50000E+01
  2.07537E+01  1.98051E+01  1.96505E+01  3.14618E-01  1.47498E+00 -8.58905E-02 -7.39533E-01 -1.33208E-04 -2.47003E-04 -1.29097E-04  4.38586E-03  4.65293E+00  2.14250E-04  3.38607E-05 -3.97136E-05  1.80747E-05  1.50000E+01
  2.04349E+01  1.99880E+01  2.01504E+01  3.03535E-01  1.28507E+00  3.35365E-03 -1.14361E+00 -3.84603E-04 -4.67999E-04  1.75163E-04  1.63506E-03  3.74557E+00 -2.36342E-04  1.99797E-05 -1.88275E-05 -2.25281E-06  1.50000E+01
  2.07471E+01  1.97923E+01  1.96773E+01  3.07407E-01  1.44131E+00 -8.79352E-02 -5.04029E-01 -1.20036E-04 -2.36116E-04 -1.05895E-04  4.42336E-03  4.54493E+00  7.91094E-05  3.47479E-05 -3.97559E-05  1.92288E-05  1.50000E+01
  2.07660E+01  1.97874E+01  1.96624E+01  2.98557E-01  1.45183E+00 -1.01805E-01 -3.63495E-01 -5.80168E-05 -1.65920E-04 -6.05497E-05  3.40832E-03  4.58021E+00 -1.35130E-03  3.84250E-05 -4.35199E-05  2.18161E-05  1.50000E+01
  2.04407E+01  1.99551E+01  2.00325E+01  3.22549E-01  1.28197E+00  1.19615E-03 -1.11895E+00 -3.89891E-04 -4.83192E-04  3.72916E-05  2.16194E-03  3.83305E+00  6.47807E-05  1.79951E-05 -1.57186E-05 -6.08877E-07  1.50000E+01
  2.04248E+01  1.99680E+01  2.00196E+01  3.15009E-01  1.26948E+00  8.06025E-04 -1.11972E+00 -3.92082E-04 -4.88494E-04  2.31178E-05  2.10016E-03  3.85287E+00  1.71060E-04  1.76740E-05 -1.52918E-05 -3.63870E-07  1.50000E+01
  2.03893E+01  2.00316E+01  2.01580E+01  2.74426E-01  1.24464E+00  2.63875E-03 -1.15544E+00 -4.12393E-04 -5.13698E-04  2.11742E-04  1.80637E-03  4.02141E+00  1.59001E-04  2.19263E-05 -1.97954E-05 -1.30607E-06  1.50000E+01
  2.03929E+01  2.00409E+01  2.01845E+01  2.68246E-01  1.24988E+00  2.78421E-03 -1.16812E+00 -4.07899E-04 -5.02259E-04  2.43825E-04  2.09261E-03  3.95403E+00 -2.46991E-05  2.23414E-05 -2.04191E-05 -1.04803E-06  1.50000E+01
  2.04070E+01  2.00228E+01  2.01731E+01  2.80848E-01  1.26249E+00  2.97769E-03 -1.16319E+00 -4.02773E-04 -4.93678E-04  2.20456E-04  1.95447E-03  3.90493E+00 -9.62377E-05  2.14070E-05 -1.98740E-05 -1.63177E-06  1.50000E+01
  2.03607E+01  2.00218E+01  1.99956E+01  2.80574E-01  1.21279E+00 -1.79480E-04 -1.07616E+00 -3.97492E-04 -5.14153E-04 -5.37179E-06  2.51841E-03  3.95462E+00 -1.13882E-04  1.79644E-05 -1.49143E-05  2.89982E-08  1.50000E+01
  2.03929E+01  1.99948E+01  1.99937E+01  2.98461E-01  1.24252E+00 -4.37452E-05 -1.10462E+00 -3.95943E-04 -5.02710E-04 -7.60919E-06  2.37689E-03  3.93722E+00  1.07831E-05  1.78925E-05 -1.51570E-05  1.17638E-07  1.50000E+01
  2.03769E+01  2.00088E+01  1.99805E+01  2.89380E-01  1.22809E+00 -4.20924E-04 -1.09800E+00 -3.94585E-04 -5.05842E-04 -2.51281E-05  2.46903E-03  3.93484E+00 -7.42453E-05  1.80572E-05 -1.51532E-05  1.75073E-07  1.50000E+01
  2.07000E+01  1.97836E+01  1.97636E+01  3.19147E-01  1.37682E+00 -5.73180E-02 -7.84448E-01 -2.17352E-04 -3.39245E-04 -1.20395E-04  6.94034E-03  4.32699E+00  1.96205E-03  3.39998E-05 -3.62862E-05  1.76698E-05  1.50000E+01
  2.07176E+01  1.97764E+01  1.97481E+01  3.05354E-01  1.37580E+00 -7.14161E-02 -6.27796E-01 -2.04320E-04 -3.38403E-04 -1.24814E-04  5.95403E-03  4.32961E+00  1.19302E-03  3.64066E-05 -3.82267E-05  1.86731E-05  1.50000E+01
  2.07048E+01  1.97933E+01  1.97354E+01  3.23057E-01  1.40087E+00 -5.99644E-02 -7.91336E-01 -2.27723E-04 -3.45908E-04 -1.43701E-04  6.48803E-03  4.40586E+00  1.97642E-03  3.30457E-05 -3.66027E-05  1.68041E-05  1.50000E+01
  2.04461E+01  1.99651E+01  2.01125E+01  3.17287E-01  1.29038E+00  3.17988E-03 -1.13258E+00 -3.75080E-04 -4.60661E-04  1.25608E-04  2.12173E-03  3.69840E+00  1.18386E-04  1.90539E-05 -1.74843E-05 -1.98367E-06  1.50000E+01
  2.01290E+01  2.02609E+01  2.01914E+01  7.32745E-02  9.20478E-01 -1.42431E-03 -1.37777E+00 -3.71518E-04 -5.77859E-04  3.69690E-04  2.66133E-03  2.89230E+00 -1.10243E-03  3.95930E-05 -2.63682E-05  4.74233E-06  1.50000E+01
  2.01141E+01  2.02791E+01  2.02019E+01  5.42132E-02  8.95764E-01 -9.37635E-04 -1.62873E+00 -3.12807E-04 -5.35352E-04  3.48509E-04  2.21997E-03  2.81572E+00 -1.32476E-03  5.28102E-05 -3.74272E-05  1.81386E-06  1.50000E+01
  2.01342E+01  2.02735E+01  2.02148E+01  6.11157E-02  9.22203E-01 -8.81985E-04 -2.60056E+00 -4.46265E-04 -6.86024E-04  4.86388E-04  2.06247E-03  2.90616E+00 -1.27135E-03  5.13383E-05 -3.63221E-05  3.31471E-06  1.50000E+01
  2.07538E+01  1.97639E+01  1.97173E+01  2.77463E-01  1.37822E+00 -1.03565E-01 -1.27770E-01 -1.00477E-04 -2.34338E-04 -7.50524E-05  2.75335E-03  4.34401E+00 -1.90992E-03  4.34043E-05 -4.46811E-05  2.33944E-05  1.50000E+01
  2.07724E+01  1.97586E+01  1.97020E+01  2.65403E-01  1.38416E+00 -1.20052E-01  2.58377E-01  2.49597E-05 -1.56013E-05  1.68011E-05 -3.44676E-02  2.15746E+00 -3.53222E-02  1.99760E-05 -2.14990E-05  1.25611E-05  1.50000E+01
  2.07596E+01  1.97751E+01  1.96895E+01  2.88335E-01  1.41479E+00 -1.03691E-01  2.50090E-02 -1.27751E-05 -1.08545E-04 -1.59602E-05  3.04296E-03  4.46136E+00 -1.70547E-03  3.91960E-05 -4.31606E-05  2.29798E-05  1.50000E+01
  2.07103E+01  1.98041E+01  1.97076E+01  3.26693E-01  1.42635E+00 -6.14198E-02 -6.53548E-01 -2.29668E-04 -3.41385E-04 -1.62357E-04  6.00947E-03  4.48897E+00  1.93387E-03  3.14286E-05 -3.63649E-05  1.61450E-05  1.50000E+01
  2.07228E+01  1.97867E+01  1.97200E+01  3.11359E-01  1.40383E+00 -7.35696E-02 -5.79507E-01 -2.01444E-04 -3.28540E-04 -1.38761E-04  5.66467E-03  4.42024E+00  1.21749E-03  3.44338E-05 -3.80691E-05  1.83576E-05  1.50000E+01
  2.03609E+01  2.00230E+01  1.99673E+01  2.79725E-01  1.21312E+00 -6.86911E-04 -1.08437E+00 -3.92471E-04 -5.07783E-04 -4.36283E-05  2.47360E-03  3.90153E+00 -8.16902E-05  1.82788E-05 -1.52175E-05  1.79574E-07  1.50000E+01
  2.03456E+01  2.00365E+01  2.00396E+01  2.70395E-01  1.19820E+00  5.10457E-04 -1.07313E+00 -4.09089E-04 -5.34318E-04  5.74690E-05  2.51012E-03  4.05777E+00 -1.01354E-04  1.92898E-05 -1.58991E-05 -5.00818E-08  1.50000E+01
  2.03446E+01  2.00353E+01  2.00106E+01  2.71205E-01  1.19700E+00  2.69830E-05 -1.06953E+00 -4.01615E-04 -5.24586E-04  1.56907E-05  2.57761E-03  3.95983E+00 -1.21057E-04  1.83731E-05 -1.50945E-05 -1.08651E-08  1.50000E+01
  2.07492E+01  1.98375E+01  1.96131E+01  3.30229E-01  1.52477E+00 -6.84822E-02 -6.32081E-01 -1.63401E-04 -2.68265E-04 -1.76444E-04  4.35879E-03  4.81117E+00  1.03474E-03  2.98512E-05 -3.69919E-05  1.43990E-05  1.50000E+01
  2.06746E+01  1.98181E+01  1.97384E+01  3.43662E-01  1.41487E+00 -3.99404E-02 -8.13730E-01 -2.81884E-04 -3.79559E-04 -1.73472E-04  6.37122E-03  4.44414E+00  2.35824E-03  2.85673E-05 -3.28529E-05  1.32822E-05  1.50000E+01
  2.06872E+01  1.98006E+01  1.97509E+01  3.33824E-01  1.39843E+00 -4.79914E-02 -7.74934E-01 -2.47100E-04 -3.55623E-04 -1.44009E-04  6.88856E-03  4.39303E+00  2.33156E-03  3.05355E-05 -3.41702E-05  1.55466E-05  1.50000E+01
  2.03298E+01  2.00514E+01  2.00543E+01  2.59708E-01  1.18224E+00  6.11103E-04 -1.07017E+00 -4.02519E-04 -5.31737E-04  7.92923E-05  2.66266E-03  3.99828E+00 -4.11823E-05  1.97389E-05 -1.61202E-05  3.90039E-09  1.50000E+01
  2.03124E+01  2.00635E+01  2.00400E+01  2.50655E-01  1.16388E+00  3.03886E-04 -1.07666E+00 -3.90571E-04 -5.22404E-04  5.85749E-05  2.77883E-03  3.86133E+00 -4.21267E-05  1.89661E-05 -1.52476E-05  1.23883E-07  1.50000E+01
  2.03141E+01  2.00667E+01  2.00685E+01  2.48350E-01  1.16572E+00  6.19220E-04 -1.07346E+00 -3.91122E-04 -5.22388E-04  9.97281E-05  2.76770E-03  3.89859E+00 -1.72676E-05  2.03079E-05 -1.64265E-05  7.00096E-08  1.50000E+01
  2.04439E+01  1.99604E+01  2.00863E+01  3.19863E-01  1.28666E+00  2.57928E-03 -1.12799E+00 -3.75561E-04 -4.63489E-04  9.65019E-05  2.15098E-03  3.69273E+00  3.36801E-05  1.86061E-05 -1.67011E-05 -1.52897E-06  1.50000E+01
  2.04420E+01  1.99571E+01  2.00596E+01  3.21588E-01  1.28383E+00  1.89879E-03 -1.12562E+00 -3.82305E-04 -4.73795E-04  6.75379E-05  2.23717E-03  3.76069E+00 -7.68896E-05  1.83778E-05 -1.62314E-05 -1.10768E-06  1.50000E+01
  2.04556E+01  1.99412E+01  2.00182E+01  3.30172E-01  1.29262E+00  8.15684E-04 -1.11421E+00 -3.92551E-04 -4.84628E-04  2.02436E-05  2.25085E-03  3.88581E+00  3.82538E-05  1.81349E-05 -1.58742E-05 -4.65448E-07  1.50000E+01
  2.04400E+01  1.99544E+01  2.00050E+01  3.22866E-01  1.28113E+00  4.11066E-04 -1.11780E+00 -3.94340E-04 -4.88641E-04  5.40257E-06  2.21998E-03  3.88003E+00  1.16527E-04  1.77353E-05 -1.54083E-05 -9.93716E-08  1.50000E+01
  2.07285E+01  1.97979E+01  1.96924E+01  3.17024E-01  1.43307E+00 -7.42539E-02 -6.00630E-01 -1.81509E-04 -2.97143E-04 -1.41405E-04  5.34516E-03  4.51515E+00  1.21023E-03  3.21629E-05 -3.73396E-05  1.76562E-05  1.50000E+01
  2.07348E+01  1.98102E+01  1.96654E+01  3.22157E-01  1.46317E+00 -7.35599E-02 -6.74650E-01 -1.82707E-04 -2.95347E-04 -1.59580E-04  5.01443E-03  4.61312E+00  1.16255E-03  3.25765E-05 -3.80581E-05  1.60366E-05  1.50000E+01
  2.06680E+01  1.98477E+01  1.96990E+01  3.48096E-01  1.44628E+00 -3.40950E-02 -9.10856E-01 -3.14885E-04 -3.94098E-04 -2.24672E-04  5.22201E-03  4.54740E+00  2.16036E-03  2.75924E-05 -3.29758E-05  1.05317E-05  1.50000E+01
  2.03379E+01  2.00681E+01  2.01395E+01  2.47446E-01  1.19181E+00  1.51825E-03 -1.11984E+00 -4.05851E-04 -5.25948E-04  2.01385E-04  2.39122E-03  3.97608E+00 -7.31659E-05  2.23557E-05 -1.88547E-05 -7.81027E-08  1.50000E+01
  2.03231E+01  2.00858E+01  2.01520E+01  2.33798E-01  1.17589E+00  1.21400E-03 -1.12783E+00 -3.95260E-04 -5.15178E-04  2.19399E-04  2.39860E-03  3.86883E+00 -1.28409E-04  2.24412E-05 -1.85570E-05  5.81825E-07  1.50000E+01
  2.03417E+01  2.00768E+01  2.01666E+01  2.41044E-01  1.19639E+00  1.65707E-03 -1.13351E+00 -4.05361E-04 -5.18264E-04  2.38545E-04  2.28040E-03  3.92168E+00 -9.74233E-05  2.28772E-05 -1.94093E-05  3.16187E-07  1.50000E+01
  2.07410E+01  1.97806E+01  1.97047E+01  2.99496E-01  1.40815E+00 -8.83700E-02 -4.82063E-01 -1.37152E-04 -2.61199E-04 -1.04260E-04  4.46550E-03  4.43809E+00 -2.48157E-05  3.79944E-05 -4.13746E-05  2.04410E-05  1.50000E+01
  2.06926E+01  1.98536E+01  1.96573E+01  3.43083E-01  1.47988E+00 -4.18851E-02 -8.62384E-01 -2.91845E-04 -3.72850E-04 -2.42056E-04  4.81431E-03  4.65983E+00  2.06571E-03  2.75221E-05 -3.41493E-05  1.08832E-05  1.50000E+01
  2.06743E+01  1.98600E+01  1.96724E+01  3.46469E-01  1.46673E+00 -3.44925E-02 -9.45034E-01 -3.14577E-04 -3.87610E-04 -2.45486E-04  4.76082E-03  4.61451E+00  2.07136E-03  2.71392E-05 -3.36491E-05  1.03927E-05  1.50000E+01
  2.04110E+01  2.00323E+01  2.01991E+01  2.74730E-01  1.26848E+00  3.13846E-03 -1.19855E+00 -4.09796E-04 -4.96919E-04  2.57030E-04  2.29065E-03  3.94579E+00 -1.33366E-04  2.25013E-05 -2.11554E-05 -1.39246E-06  1.50000E+01
  2.04247E+01  2.00139E+01  2.01877E+01  2.87185E-01  1.28004E+00  3.39338E-03 -1.17044E+00 -4.03564E-04 -4.87872E-04  2.33277E-04  2.21099E-03  3.90654E+00 -1.69389E-04  2.17895E-05 -2.08002E-05 -2.01281E-06  1.50000E+01
  2.03973E+01  2.00511E+01  2.02104E+01  2.61406E-01  1.25606E+00  2.83166E-03 -1.20912E+00 -4.13535E-04 -5.02934E-04  2.80777E-04  2.25130E-03  3.96572E+00 -1.34162E-04  2.34656E-05 -2.16551E-05 -6.99853E-07  1.50000E+01
  2.03931E+01  1.99962E+01  1.99656E+01  2.97662E-01  1.24294E+00 -7.16883E-04 -1.10965E+00 -3.96141E-04 -5.03253E-04 -4.38742E-05  2.44552E-03  3.92199E+00 -1.09444E-05  1.83865E-05 -1.56304E-05  4.39730E-07  1.50000E+01
  2.07228E+01  1.98286E+01  1.96537E+01  3.32590E-01  1.48047E+00 -6.09538E-02 -7.60753E-01 -2.22545E-04 -3.23620E-04 -1.95213E-04  5.02449E-03  4.66668E+00  1.69028E-03  3.03106E-05 -3.64488E-05  1.36097E-05  1.50000E+01
  2.07300E+01  1.98423E+01  1.96277E+01  3.34629E-01  1.50861E+00 -5.91805E-02 -7.22965E-01 -2.21556E-04 -3.20220E-04 -2.13815E-04  4.55914E-03  4.75705E+00  1.52881E-03  2.89668E-05 -3.62294E-05  1.33344E-05  1.50000E+01
  2.07111E+01  1.98477E+01  1.96424E+01  3.39032E-01  1.49374E+00 -5.01971E-02 -7.74250E-01 -2.62566E-04 -3.52191E-04 -2.32991E-04  4.72934E-03  4.70752E+00  1.87611E-03  2.83688E-05 -3.52349E-05  1.18900E-05  1.50000E+01
  2.06562E+01  1.98668E+01  1.96874E+01  3.48971E-01  1.45402E+00 -2.81373E-02 -9.85780E-01 -3.35941E-04 -4.03997E-04 -2.49063E-04  4.60179E-03  4.57184E+00  1.95085E-03  2.68922E-05 -3.30004E-05  9.75503E-06  1.50000E+01
  2.04626E+01  1.99545E+01  2.01262E+01  3.23417E-01  1.30416E+00  3.77067E-03 -1.13544E+00 -3.86339E-04 -4.71377E-04  1.41736E-04  2.37966E-03  3.83884E+00  4.18633E-05  2.00732E-05 -1.87826E-05 -2.46426E-06  1.50000E+01
  2.04488E+01  1.99711E+01  2.01386E+01  3.13868E-01  1.29499E+00  3.63038E-03 -1.14586E+00 -3.84479E-04 -4.68145E-04  1.58110E-04  2.15524E-03  3.77568E+00  6.79101E-05  1.97914E-05 -1.86211E-05 -2.40578E-06  1.50000E+01
  2.03346E+01  2.00609E+01  2.01116E+01  2.52791E-01  1.18790E+00  1.30380E-03 -1.10852E+00 -4.08870E-04 -5.34906E-04  1.63429E-04  2.51140E-03  4.03729E+00  2.40808E-07  2.17477E-05 -1.81551E-05 -2.42581E-07  1.50000E+01
  2.03164E+01  2.00715E+01  2.00968E+01  2.44729E-01  1.16838E+00  8.88686E-04 -1.08539E+00 -3.92132E-04 -5.21512E-04  1.40667E-04  2.66063E-03  3.91163E+00 -1.31954E-05  2.13004E-05 -1.73881E-05  2.43114E-08  1.50000E+01
  2.01194E+01  2.02922E+01  2.02248E+01  4.12596E-02  8.96609E-01  0.00000E+00 -4.91304E-01 -1.41299E-04 -2.46150E-04  1.70752E-04  9.98018E+00 -3.59876E+01 -3.69559E+01  2.91290E-05 -2.13585E-05  1.12731E-07  1.50000E+01
  2.07853E+01  1.97832E+01  1.96476E+01  2.91129E-01  1.46535E+00 -1.15086E-01  1.24779E-01 -2.38719E-05 -8.07392E-05 -2.95947E-05 -2.28799E-02  2.30237E+00 -3.21500E-02  1.96581E-05 -2.21127E-05  1.10517E-05  1.50000E+01
  2.07730E+01  1.98007E+01  1.96359E+01  3.07848E-01  1.48892E+00 -9.81165E-02 -4.20151E-01 -6.59605E-05 -1.72749E-04 -7.58948E-05  3.67543E-03  4.69913E+00 -9.97753E-04  3.56104E-05 -4.17853E-05  2.00837E-05  1.50000E+01
  2.06811E+01  1.98732E+01  1.96463E+01  3.44391E-01  1.48823E+00 -3.43627E-02 -9.39865E-01 -3.22816E-04 -3.92674E-04 -2.73871E-04  4.32136E-03  4.68587E+00  1.95465E-03  2.72493E-05 -3.48314E-05  1.02278E-05  1.50000E+01
  2.06627E+01  1.98797E+01  1.96612E+01  3.46136E-01  1.47349E+00 -2.83609E-02 -9.86660E-01 -3.39186E-04 -4.01334E-04 -2.73078E-04  4.22229E-03  4.63589E+00  1.88549E-03  2.62334E-05 -3.34218E-05  9.57039E-06  1.50000E+01
  2.03444E+01  2.00357E+01  1.99821E+01  2.70900E-01  1.19685E+00 -4.25667E-04 -1.06908E+00 -3.94783E-04 -5.15497E-04 -2.43163E-05  2.55219E-03  3.89145E+00 -9.45512E-05  1.80877E-05 -1.48654E-05  3.80227E-08  1.50000E+01
  2.04520E+01  1.99784E+01  2.01646E+01  3.09689E-01  1.30056E+00  3.94596E-03 -1.14625E+00 -3.95196E-04 -4.76256E-04  1.91930E-04  2.08536E-03  3.86616E+00 -1.61612E-04  2.05277E-05 -1.98546E-05 -2.80980E-06  1.50000E+01
  2.03603E+01  2.00680E+01  2.01813E+01  2.48028E-01  1.21660E+00  2.09195E-03 -1.16034E+00 -4.08398E-04 -5.13474E-04  2.53413E-04  2.17180E-03  3.94702E+00 -5.57504E-05  2.33659E-05 -2.03670E-05  1.46495E-08  1.50000E+01
  2.03788E+01  2.00594E+01  2.01959E+01  2.54801E-01  1.23649E+00  2.48232E-03 -1.19213E+00 -4.08829E-04 -5.05936E-04  2.66136E-04  2.14492E-03  3.95445E+00 -6.71250E-05  2.33317E-05 -2.09715E-05 -4.22242E-07  1.50000E+01
  2.01438E+01  2.02430E+01  2.01805E+01  9.15845E-02  9.44120E-01 -1.62284E-03 -1.09475E+00 -3.15917E-04 -4.88376E-04  2.90420E-04  2.63796E-03  2.97353E+00 -8.53793E-04  3.44009E-05 -2.28502E-05  4.79528E-06  1.50000E+01
  2.01242E+01  2.02498E+01  2.01674E+01  8.40813E-02  9.18346E-01 -1.60936E-03 -1.00603E+00 -2.79509E-04 -4.51096E-04  2.45853E-04  3.12078E-03  2.87465E+00 -8.93661E-04  3.51068E-05 -2.37042E-05  3.67656E-06  1.50000E+01
  2.07377E+01  1.98568E+01  1.96022E+01  3.35958E-01  1.53717E+00 -5.65064E-02 -7.20266E-01 -2.32634E-04 -3.34080E-04 -2.45487E-04  4.14643E-03  4.84947E+00  1.37331E-03  2.91623E-05 -3.73826E-05  1.32255E-05  1.50000E+01
  2.02952E+01  2.00760E+01  2.00260E+01  2.41172E-01  1.14523E+00  8.32022E-05 -1.07854E+00 -3.75877E-04 -5.10728E-04  3.79372E-05  2.79212E-03  3.75127E+00 -2.77808E-05  1.86290E-05 -1.47663E-05  7.14148E-08  1.50000E+01
  2.02964E+01  2.00783E+01  2.00542E+01  2.39419E-01  1.14655E+00  3.13366E-04 -1.07463E+00 -3.79611E-04 -5.14795E-04  7.91915E-05  2.83667E-03  3.77876E+00 -3.67072E-05  1.95544E-05 -1.55542E-05  1.45807E-07  1.50000E+01
  2.04601E+01  1.99492E+01  2.00997E+01  3.26226E-01  1.29976E+00  3.16310E-03 -1.12667E+00 -3.83759E-04 -4.71417E-04  1.11379E-04  2.34983E-03  3.81056E+00  3.56381E-05  1.96606E-05 -1.79525E-05 -2.00544E-06  1.50000E+01
  2.04580E+01  1.99452E+01  2.00728E+01  3.28266E-01  1.29635E+00  2.43882E-03 -1.11894E+00 -3.86161E-04 -4.76222E-04  8.17667E-05  2.32590E-03  3.81769E+00 -1.39471E-06  1.92393E-05 -1.72362E-05 -1.53333E-06  1.50000E+01
  2.03272E+01  2.00951E+01  2.01786E+01  2.26711E-01  1.18061E+00  1.28597E-03 -1.16457E+00 -3.98656E-04 -5.12662E-04  2.57946E-04  2.23199E-03  3.84945E+00 -1.64830E-04  2.32253E-05 -1.92492E-05  1.04904E-06  1.50000E+01
  2.03129E+01  2.01137E+01  2.01905E+01  2.11691E-01  1.16418E+00  8.83186E-04 -1.17485E+00 -3.91583E-04 -5.06919E-04  2.77319E-04  2.15493E-03  3.77676E+00 -2.33582E-04  2.40452E-05 -1.95218E-05  1.61469E-06  1.50000E+01
  2.03319E+01  2.01057E+01  2.02046E+01  2.18699E-01  1.18593E+00  1.29880E-03 -1.18739E+00 -4.03101E-04 -5.11493E-04  2.96528E-04  2.09320E-03  3.83917E+00 -2.06337E-04  2.46367E-05 -2.05937E-05  1.31327E-06  1.50000E+01
  2.06446E+01  1.98865E+01  1.96761E+01  3.47060E-01  1.45916E+00 -2.32478E-02 -1.04599E+00 -3.56689E-04 -4.14630E-04 -2.74548E-04  4.05771E-03  4.58847E+00  1.73141E-03  2.62374E-05 -3.29755E-05  9.07661E-06  1.50000E+01
  2.03285E+01  2.00492E+01  2.00255E+01  2.61244E-01  1.18070E+00  1.98097E-04 -1.08245E+00 -3.99136E-04 -5.27036E-04  3.73588E-05  2.69289E-03  3.92789E+00 -8.45125E-05  1.85483E-05 -1.50725E-05  7.68894E-08  1.50000E+01
  2.03279E+01  2.00487E+01  1.99969E+01  2.61558E-01  1.18012E+00 -1.98429E-04 -1.08232E+00 -3.93860E-04 -5.19876E-04 -3.80521E-06  2.63755E-03  3.86634E+00 -8.26817E-05  1.79622E-05 -1.45877E-05  6.67502E-09  1.50000E+01
  2.04565E+01  1.99425E+01  2.00457E+01  3.29566E-01  1.29396E+00  1.64666E-03 -1.12278E+00 -3.89562E-04 -4.81083E-04  5.13652E-05  2.32025E-03  3.84970E+00 -2.78753E-05  1.85685E-05 -1.63885E-05 -9.74616E-07  1.50000E+01
  2.07185E+01  1.98617E+01  1.96167E+01  3.39057E-01  1.51984E+00 -4.86588E-02 -8.05176E-01 -2.77800E-04 -3.67875E-04 -2.68288E-04  4.24829E-03  4.79157E+00  1.69214E-03  2.82939E-05 -3.63945E-05  1.20090E-05  1.50000E+01
  2.06996E+01  1.98672E+01  1.96314E+01  3.41959E-01  1.50360E+00 -4.11871E-02 -8.62124E-01 -3.05069E-04 -3.83641E-04 -2.74398E-04  4.32306E-03  4.73792E+00  1.88584E-03  2.78825E-05 -3.56589E-05  1.08943E-05  1.50000E+01
  2.03195E+01  2.00779E+01  2.01247E+01  2.39846E-01  1.17180E+00  1.08638E-03 -1.09635E+00 -3.95417E-04 -5.21334E-04  1.81308E-04  2.55007E-03  3.89571E+00 -5.70553E-05  2.17751E-05 -1.79227E-05  1.96563E-07  1.50000E+01
  2.03011E+01  2.00879E+01  2.01101E+01  2.31908E-01  1.15156E+00  6.79129E-04 -1.09497E+00 -3.80682E-04 -5.11026E-04  1.59553E-04  2.63149E-03  3.80163E+00 -8.70819E-05  2.13495E-05 -1.72128E-05  3.39226E-07  1.50000E+01
  2.04859E+01  1.99143E+01  1.99894E+01  3.43529E-01  1.31248E+00 -2.05891E-04 -1.13254E+00 -3.91566E-04 -4.82769E-04 -1.20389E-05  2.36873E-03  3.98656E+00  1.03954E-05  1.95615E-05 -1.72670E-05  3.36158E-07  1.50000E+01
  2.04708E+01  1.99282E+01  1.99759E+01  3.36812E-01  1.30317E+00 -6.24621E-04 -1.12614E+00 -3.96515E-04 -4.88409E-04 -2.76502E-05  2.29420E-03  3.96792E+00  4.04415E-05  1.89407E-05 -1.66890E-05  6.90419E-07  1.50000E+01
  2.04707E+01  1.99276E+01  2.00038E+01  3.37169E-01  1.30279E+00  3.49457E-04 -1.13125E+00 -3.92912E-04 -4.83862E-04  3.75695E-06  2.29772E-03  3.93761E+00  1.91287E-05  1.85618E-05 -1.63019E-05 -1.38905E-07  1.50000E+01
  2.07264E+01  1.98766E+01  1.95916E+01  3.38486E-01  1.54648E+00 -4.64142E-02 -8.75383E-01 -2.94408E-04 -3.85102E-04 -3.07478E-04  3.82130E-03  4.87802E+00  1.51094E-03  2.81299E-05 -3.74704E-05  1.22047E-05  1.50000E+01
  2.04692E+01  1.99690E+01  2.01789E+01  3.15558E-01  1.31592E+00  4.56685E-03 -1.15631E+00 -4.00633E-04 -4.78392E-04  2.06252E-04  2.26836E-03  3.94879E+00 -1.47285E-04  2.11635E-05 -2.09903E-05 -3.29436E-06  1.50000E+01
  2.04656E+01  1.99611E+01  2.01526E+01  3.19844E-01  1.30955E+00  4.23323E-03 -1.14458E+00 -3.93298E-04 -4.74818E-04  1.73656E-04  2.33479E-03  3.89050E+00 -1.59677E-05  2.04806E-05 -1.97277E-05 -2.92217E-06  1.50000E+01
  2.02984E+01  2.00823E+01  2.00823E+01  2.36320E-01  1.14867E+00  5.18196E-04 -1.07150E+00 -3.80048E-04 -5.13219E-04  1.19681E-04  2.76491E-03  3.79699E+00 -5.57119E-05  2.04695E-05 -1.63828E-05  2.00308E-07  1.50000E+01
  2.03509E+01  2.00977E+01  2.02187E+01  2.25564E-01  1.20746E+00  1.69120E-03 -1.21486E+00 -4.12533E-04 -5.13336E-04  3.14130E-04  2.06513E-03  3.89139E+00 -1.94261E-04  2.50473E-05 -2.14584E-05  1.13742E-06  1.50000E+01
  2.03699E+01  2.00900E+01  2.02328E+01  2.32301E-01  1.22878E+00  2.04576E-03 -1.25298E+00 -4.22624E-04 -5.16255E-04  3.32120E-04  2.07472E-03  3.93646E+00 -2.11143E-04  2.53611E-05 -2.22608E-05  1.00023E-06  1.50000E+01
  2.03648E+01  2.00784E+01  2.02074E+01  2.40563E-01  1.22235E+00  2.10835E-03 -1.19393E+00 -4.10454E-04 -5.09413E-04  2.89486E-04  2.13202E-03  3.93170E+00 -1.27016E-04  2.41635E-05 -2.12358E-05  3.46535E-07  1.50000E+01
  2.01048E+01  2.02569E+01  2.01543E+01  7.61596E-02  8.92335E-01 -1.44591E-03 -9.25792E-01 -2.43443E-04 -4.10824E-04  2.00559E-04  3.71963E-03  2.76695E+00 -9.00872E-04  3.63740E-05 -2.49955E-05  2.53587E-06  1.50000E+01
  2.00895E+01  2.02737E+01  2.01655E+01  5.84683E-02  8.68074E-01 -1.25367E-03 -9.49576E-01 -2.38763E-04 -4.20280E-04  2.19488E-04  3.59454E-03  2.67193E+00 -1.20954E-03  4.02191E-05 -2.74700E-05  1.85335E-06  1.50000E+01