 TITLE="3D TRIANGULAR SURFACE DATA"
VARIABLES="X","Y","Z","U","V","W","P", "Fex", "Fey", "Fez","Finx","Finy","Finz","WSSx","WSSy","WSSz","AMForce"
 ZONE T="unstruc"N=        1757 E=        3355 F=FEPOINT  ET=TRIANGLE
  2.03625E+01  2.00247E+01  2.00979E+01  3.33549E-01 -1.21311E+00  3.02218E-03  1.11314E+00 -5.78739E-04  6.11484E-04  1.57132E-04  3.10126E-03 -5.01728E+00  1.66886E-04  2.55631E-05  2.67957E-05 -1.57443E-06  1.50000E+01
  2.03786E+01  2.00412E+01  2.00981E+01  3.45979E-01 -1.22826E+00  3.25787E-03  1.13170E+00 -2.77988E-04  2.90084E-04  7.35438E-05  2.42437E-03 -2.38091E+00 -4.14914E-04  1.20800E-05  1.28360E-05 -8.54704E-07  1.50000E+01
  2.03736E+01  2.00411E+01  2.00768E+01  3.45230E-01 -1.22307E+00  2.85156E-03  1.12362E+00 -4.09830E-04  4.29342E-04  8.41472E-05  1.54354E-03 -3.50630E+00  1.09350E-03  1.74431E-05  1.83310E-05 -1.16754E-06  1.50000E+01
  2.03632E+01  2.00155E+01  2.01290E+01  3.27455E-01 -1.21510E+00  3.77463E-03  1.10139E+00 -4.83618E-04  5.09586E-04  1.71539E-04  1.70859E-03 -4.23906E+00  6.24375E-04  2.24666E-05  2.40250E-05 -1.84915E-06  1.50000E+01
  2.03776E+01  2.00339E+01  2.01192E+01  3.40893E-01 -1.22864E+00  3.60110E-03  1.12518E+00 -4.07286E-04  4.23602E-04  1.32215E-04  8.24165E-04 -3.49940E+00 -1.41048E-03  1.83021E-05  1.97274E-05 -1.52697E-06  1.50000E+01
  2.03907E+01  2.00505E+01  2.01102E+01  3.52859E-01 -1.24034E+00  3.96185E-03  1.15706E+00 -3.56779E-04  3.68796E-04  1.04647E-04  1.25311E-03 -3.03977E+00  3.53516E-04  1.56685E-05  1.69572E-05 -1.42517E-06  1.50000E+01
  2.03885E+01  2.00546E+01  2.00863E+01  3.55208E-01 -1.23707E+00  3.19561E-03  1.13472E+00 -3.58249E-04  3.72024E-04  8.10199E-05  1.82548E-03 -3.04950E+00 -4.73245E-04  1.51473E-05  1.61081E-05 -1.11138E-06  1.50000E+01
  2.03702E+01  2.00424E+01  2.00497E+01  3.45569E-01 -1.21926E+00  1.89579E-03  1.12266E+00 -4.46276E-04  4.70180E-04  6.03692E-05  1.58768E-03 -3.80736E+00  3.24194E-04  1.84675E-05  1.90960E-05 -8.56305E-07  1.50000E+01
  2.03571E+01  2.00263E+01  2.00663E+01  3.33963E-01 -1.20694E+00  2.08210E-03  1.10415E+00 -4.90453E-04  5.22061E-04  9.20947E-05  1.80896E-03 -4.24970E+00 -2.80296E-04  2.12475E-05  2.18921E-05 -1.13691E-06  1.50000E+01
  2.03543E+01  2.00277E+01  2.00374E+01  3.34589E-01 -1.20377E+00  1.19267E-03  1.10349E+00 -4.60369E-04  4.90948E-04  4.87053E-05  1.79182E-03 -3.98410E+00 -7.56161E-05  1.92482E-05  1.95925E-05 -6.10684E-07  1.50000E+01
  2.03794E+01  2.00262E+01  2.01455E+01  3.36092E-01 -1.23194E+00  4.36362E-03  1.12148E+00 -4.34083E-04  4.50927E-04  1.70414E-04  1.21179E-03 -3.77715E+00 -2.37431E-04  2.02473E-05  2.21684E-05 -1.92692E-06  1.50000E+01
  2.03926E+01  2.00443E+01  2.01348E+01  3.48992E-01 -1.24380E+00  4.50704E-03  1.13964E+00 -4.09880E-04  4.22034E-04  1.46299E-04  7.90516E-04 -3.51568E+00 -3.77126E-04  1.85387E-05  2.04666E-05 -2.04214E-06  1.50000E+01
  2.03284E+01  1.99902E+01  2.00971E+01  3.06902E-01 -1.17852E+00  2.31634E-03  1.07465E+00 -4.66053E-04  5.04741E-04  1.32884E-04  2.05959E-03 -4.17922E+00  3.99627E-05  2.17549E-05  2.22164E-05 -1.08953E-06  1.50000E+01
  2.03258E+01  1.99943E+01  2.00681E+01  3.09576E-01 -1.17528E+00  1.63771E-03  1.06693E+00 -4.58379E-04  4.98589E-04  9.22631E-05  2.17686E-03 -4.10634E+00  4.27760E-06  2.06270E-05  2.07959E-05 -8.74023E-07  1.50000E+01
  2.03113E+01  1.99768E+01  2.00824E+01  2.95950E-01 -1.16007E+00  1.71022E-03  1.04987E+00 -4.34240E-04  4.77462E-04  1.08156E-04  2.22658E-03 -3.96430E+00  2.05576E-05  2.04547E-05  2.04884E-05 -7.87267E-07  1.50000E+01
  2.03461E+01  2.00035E+01  2.01124E+01  3.17786E-01 -1.19715E+00  2.99244E-03  1.07476E+00 -5.09938E-04  5.44366E-04  1.62767E-04  2.42780E-03 -4.50542E+00 -5.91164E-05  2.34579E-05  2.44720E-05 -1.43831E-06  1.50000E+01
  2.03316E+01  1.99842E+01  2.01257E+01  3.02964E-01 -1.18242E+00  2.87248E-03  1.05890E+00 -4.51627E-04  4.86702E-04  1.65520E-04  1.99549E-03 -4.08416E+00 -4.48053E-05  2.20276E-05  2.29459E-05 -1.46024E-06  1.50000E+01
  2.03489E+01  1.99962E+01  2.01411E+01  3.12918E-01 -1.20110E+00  3.59352E-03  1.07973E+00 -4.56871E-04  4.84968E-04  1.82367E-04  1.80599E-03 -4.09050E+00  1.44140E-04  2.20305E-05  2.35222E-05 -1.79422E-06  1.50000E+01
  2.03431E+01  2.00087E+01  2.00826E+01  3.20995E-01 -1.19338E+00  2.27435E-03  1.08357E+00 -5.12099E-04  5.49570E-04  1.21571E-04  2.17826E-03 -4.51000E+00  2.97105E-05  2.29124E-05  2.35068E-05 -1.15572E-06  1.50000E+01
  2.03402E+01  2.00114E+01  2.00531E+01  3.22509E-01 -1.18991E+00  1.44614E-03  1.09367E+00 -4.68301E-04  5.04197E-04  7.19707E-05  1.96329E-03 -4.12273E+00 -8.27868E-05  2.02490E-05  2.05177E-05 -7.61694E-07  1.50000E+01
  2.04029E+01  2.00668E+01  2.00984E+01  3.63976E-01 -1.25073E+00  3.97510E-03  1.15204E+00 -3.99872E-04  4.12360E-04  1.01839E-04  1.46442E-03 -3.38119E+00  1.00170E-04  1.69633E-05  1.83127E-05 -1.52790E-06  1.50000E+01
  2.04007E+01  2.00702E+01  2.00728E+01  3.65755E-01 -1.24751E+00  3.04125E-03  1.15486E+00 -4.15193E-04  4.29893E-04  7.77655E-05  1.74140E-03 -3.49568E+00 -1.78799E-04  1.73558E-05  1.84654E-05 -1.31813E-06  1.50000E+01
  2.04053E+01  2.00618E+01  2.01236E+01  3.61198E-01 -1.25458E+00  4.77839E-03  1.15348E+00 -4.10919E-04  4.21133E-04  1.31765E-04  1.36378E-03 -3.48593E+00  1.77760E-04  1.79059E-05  1.97131E-05 -1.89439E-06  1.50000E+01
  2.03856E+01  2.00566E+01  2.00611E+01  3.55964E-01 -1.23378E+00  2.48020E-03  1.13361E+00 -4.18875E-04  4.36317E-04  6.70646E-05  1.16726E-03 -3.54022E+00  2.26306E-04  1.72917E-05  1.81729E-05 -1.08851E-06  1.50000E+01
  2.03987E+01  2.00723E+01  2.00464E+01  3.66699E-01 -1.24505E+00  2.09826E-03  1.15470E+00 -4.40509E-04  4.56721E-04  5.25375E-05  1.61172E-03 -3.67908E+00  8.88864E-05  1.79666E-05  1.88868E-05 -9.46603E-07  1.50000E+01
  2.03385E+01  2.00128E+01  2.00241E+01  3.23311E-01 -1.18785E+00  6.10630E-04  1.09229E+00 -4.49975E-04  4.85052E-04  3.17787E-05  2.13753E-03 -3.95837E+00 -9.54117E-05  1.88905E-05  1.89785E-05 -3.54798E-07  1.50000E+01
  2.03684E+01  2.00433E+01  2.00218E+01  3.45953E-01 -1.21715E+00  8.78156E-04  1.11336E+00 -4.54100E-04  4.79238E-04  2.72570E-05  1.86830E-03 -3.86253E+00  9.02627E-05  1.82478E-05  1.86893E-05 -4.16096E-07  1.50000E+01
  2.03531E+01  2.00283E+01  2.00089E+01  3.34881E-01 -1.20233E+00  2.71514E-04  1.10163E+00 -4.51142E-04  4.81527E-04  1.17092E-05  2.09226E-03 -3.90312E+00 -6.33868E-05  1.84913E-05  1.87192E-05 -1.65255E-07  1.50000E+01
  2.03352E+01  1.99768E+01  2.01533E+01  2.98030E-01 -1.18703E+00  3.31685E-03  1.06764E+00 -4.28188E-04  4.58608E-04  1.90649E-04  1.86977E-03 -3.93825E+00  1.10820E-05  2.17227E-05  2.31155E-05 -1.65385E-06  1.50000E+01
  2.03526E+01  1.99880E+01  2.01683E+01  3.07652E-01 -1.20605E+00  3.99911E-03  1.08615E+00 -4.29704E-04  4.53640E-04  2.04189E-04  1.72712E-03 -3.91814E+00  8.43876E-05  2.18948E-05  2.39369E-05 -2.03907E-06  1.50000E+01
  2.06606E+01  2.02412E+01  1.96707E+01  4.61556E-01 -1.47850E+00 -4.10343E-02  9.30628E-01 -3.79315E-04  3.92217E-04 -2.54563E-04  3.15634E-03 -4.65368E+00  6.04213E-04  2.74885E-05  3.83259E-05  9.02530E-06  1.50000E+01
  2.06434E+01  2.02325E+01  1.96860E+01  4.58839E-01 -1.46232E+00 -3.59954E-02  9.98170E-01 -4.12123E-04  4.12742E-04 -2.60225E-04  3.11470E-03 -4.59872E+00  7.02464E-04  2.72284E-05  3.77598E-05  8.27717E-06  1.50000E+01
  2.06537E+01  2.02524E+01  1.96975E+01  4.61022E-01 -1.45900E+00 -4.06299E-02  8.95176E-01 -3.69354E-04  3.88945E-04 -2.24462E-04  3.41553E-03 -4.58812E+00  6.76038E-04  2.82472E-05  3.89516E-05  1.00569E-05  1.50000E+01
  2.06369E+01  2.02433E+01  1.97129E+01  4.59112E-01 -1.44453E+00 -3.51790E-02  9.94245E-01 -4.01421E-04  4.09532E-04 -2.29650E-04  3.35973E-03 -4.53951E+00  7.56663E-04  2.73500E-05  3.75570E-05  9.23796E-06  1.50000E+01
  2.06475E+01  2.02627E+01  1.97248E+01  4.60252E-01 -1.44065E+00 -3.95146E-02  9.58311E-01 -3.53801E-04  3.78291E-04 -1.92170E-04  3.67972E-03 -4.52684E+00  7.35742E-04  2.88440E-05  3.96353E-05  1.18261E-05  1.50000E+01
  2.07140E+01  2.02641E+01  1.96254E+01  4.68843E-01 -1.53297E+00 -5.72224E-02  6.44682E-01 -2.40228E-04  3.05287E-04 -2.07184E-04  3.03243E-03 -4.83572E+00 -2.77837E-04  3.17918E-05  4.29242E-05  1.19898E-05  1.50000E+01
  2.06958E+01  2.02571E+01  1.96404E+01  4.66402E-01 -1.51368E+00 -5.18599E-02  7.37660E-01 -2.91546E-04  3.39684E-04 -2.29307E-04  3.12811E-03 -4.77188E+00  1.21675E-04  2.94392E-05  4.03949E-05  1.06488E-05  1.50000E+01
  2.07060E+01  2.02767E+01  1.96516E+01  4.65235E-01 -1.50792E+00 -5.92119E-02  5.30639E-01 -1.97112E-04  2.64578E-04 -1.55205E-04  3.00346E-03 -4.75462E+00 -3.53157E-04  3.21207E-05  4.38845E-05  1.37208E-05  1.50000E+01
  2.04083E+01  2.00556E+01  2.01490E+01  3.57671E-01 -1.25930E+00  5.41666E-03  1.15058E+00 -4.27696E-04  4.36309E-04  1.64617E-04  1.36753E-03 -3.67012E+00 -1.62793E-04  1.94397E-05  2.18173E-05 -2.21966E-06  1.50000E+01
  2.06986E+01  2.02885E+01  1.96784E+01  4.61104E-01 -1.48358E+00 -6.01279E-02  5.30163E-01 -1.78706E-04  2.48493E-04 -1.22650E-04  3.00585E-03 -4.67593E+00 -3.90308E-04  3.34844E-05  4.57350E-05  1.57186E-05  1.50000E+01
  2.07164E+01  2.02959E+01  1.96630E+01  4.61523E-01 -1.50038E+00 -6.73416E-02 -1.33203E-01 -3.70542E-05  1.21488E-04 -3.50464E-05  2.32280E-03 -4.73166E+00 -1.27241E-03  3.57222E-05  4.86832E-05  1.78890E-05  1.50000E+01
  2.04123E+01  2.00880E+01  2.00321E+01  3.77154E-01 -1.25640E+00  1.63862E-03  1.16777E+00 -4.50809E-04  4.64819E-04  3.63894E-05  1.92246E-03 -3.75621E+00  5.43447E-05  1.80602E-05  1.90142E-05 -6.76696E-07  1.50000E+01
  2.03975E+01  2.00735E+01  2.00193E+01  3.67197E-01 -1.24357E+00  1.02275E-03  1.15415E+00 -4.53377E-04  4.70521E-04  2.25161E-05  1.88752E-03 -3.77388E+00  1.32859E-04  1.79915E-05  1.87542E-05 -4.13959E-07  1.50000E+01
  2.03660E+01  2.00074E+01  2.01567E+01  3.22252E-01 -1.21925E+00  4.28170E-03  1.10431E+00 -4.42946E-04  4.63910E-04  1.91392E-04  1.49807E-03 -3.93903E+00  1.85290E-04  2.14608E-05  2.34613E-05 -2.02036E-06  1.50000E+01
  2.03699E+01  1.99989E+01  2.01831E+01  3.17008E-01 -1.22474E+00  4.65251E-03  1.09567E+00 -4.28532E-04  4.45196E-04  2.15683E-04  1.80507E-03 -3.87416E+00  2.61713E-05  2.14567E-05  2.40990E-05 -2.37723E-06  1.50000E+01
  2.03828E+01  2.00183E+01  2.01717E+01  3.31319E-01 -1.23695E+00  4.93291E-03  1.12033E+00 -4.33654E-04  4.47452E-04  2.00291E-04  1.63987E-03 -3.82557E+00 -6.29278E-05  2.08223E-05  2.33579E-05 -2.27504E-06  1.50000E+01
  2.03378E+01  2.00130E+01  1.99956E+01  3.23369E-01 -1.18711E+00 -2.16994E-04  1.09166E+00 -4.39901E-04  4.74329E-04 -5.02861E-06  2.25372E-03 -3.87057E+00 -9.79156E-05  1.82773E-05  1.83173E-05  5.31172E-08  1.50000E+01
  2.03678E+01  2.00433E+01  1.99938E+01  3.45901E-01 -1.21645E+00 -1.44223E-04  1.11180E+00 -4.53478E-04  4.78888E-04 -7.38037E-06  2.14271E-03 -3.85425E+00  5.59878E-06  1.80352E-05  1.84239E-05  1.04426E-07  1.50000E+01
  2.03529E+01  2.00277E+01  1.99807E+01  3.34504E-01 -1.20217E+00 -6.38517E-04  1.10153E+00 -4.45338E-04  4.75363E-04 -2.37405E-05  2.22365E-03 -3.85145E+00 -6.73476E-05  1.82844E-05  1.85161E-05  2.65644E-07  1.50000E+01
  2.06528E+01  2.02907E+01  1.97651E+01  4.56701E-01 -1.41726E+00 -4.20951E-02  6.75025E-01 -3.09578E-04  3.54499E-04 -1.39305E-04  4.16706E-03 -4.45019E+00  6.55356E-04  3.20197E-05  4.21764E-05  1.47861E-05  1.50000E+01
  2.06691E+01  2.03003E+01  1.97494E+01  4.54430E-01 -1.42712E+00 -4.99290E-02  6.62974E-01 -2.41803E-04  3.02223E-04 -1.18238E-04  3.77839E-03 -4.48779E+00  2.86943E-04  3.26355E-05  4.32321E-05  1.61651E-05  1.50000E+01
  2.06582E+01  2.02817E+01  1.97370E+01  4.58805E-01 -1.43493E+00 -4.44362E-02  7.43337E-01 -3.07818E-04  3.50357E-04 -1.58308E-04  3.89381E-03 -4.50949E+00  6.15440E-04  3.01982E-05  4.13508E-05  1.45128E-05  1.50000E+01
  2.04180E+01  2.00791E+01  2.01114E+01  3.72797E-01 -1.26478E+00  4.83235E-03  1.16877E+00 -4.30205E-04  4.39837E-04  1.21513E-04  1.77926E-03 -3.62461E+00  1.16397E-04  1.84497E-05  2.02522E-05 -1.90788E-06  1.50000E+01
  2.01234E+01  1.97514E+01  2.01911E+01  8.89805E-02 -9.12415E-01 -1.00017E-03  7.00358E-01 -2.40437E-04  3.42454E-04  2.05333E-04  2.34282E-03 -2.86645E+00 -7.93666E-04  3.93036E-05  3.55467E-05 -1.60820E-07  1.50000E+01
  2.01097E+01  1.97319E+01  2.02017E+01  6.85619E-02 -8.89612E-01 -6.93108E-04  8.54234E-01 -2.40604E-04  3.67215E-04  2.29543E-04  1.99523E-03 -2.79596E+00 -1.05550E-03  4.86642E-05  4.38629E-05 -9.56904E-07  1.50000E+01
  2.01290E+01  1.97399E+01  2.02146E+01  7.86112E-02 -9.15056E-01 -6.41456E-04  7.90497E-01 -2.53388E-04  3.77171E-04  2.48238E-04  1.70313E-03 -2.88317E+00 -9.20418E-04  5.01389E-05  4.55935E-05  2.65090E-07  1.50000E+01
  2.07026E+01  2.03178E+01  1.97179E+01  4.49353E-01 -1.45015E+00 -6.74246E-02 -2.43449E-02 -3.98005E-05  1.36959E-04 -2.74402E-05  1.93553E-03 -4.56958E+00 -1.43599E-03  4.21099E-05  5.49733E-05  2.20594E-05  1.50000E+01
  2.07200E+01  2.03255E+01  1.97023E+01  4.47694E-01 -1.46440E+00 -7.62433E-02 -1.46488E-01 -1.77468E-05  6.98317E-05 -1.22684E-05 -9.24335E-03 -2.31229E+00 -1.85674E-02  2.21525E-05  2.89826E-05  1.19229E-05  1.50000E+01
  2.07092E+01  2.03073E+01  1.96902E+01  4.55626E-01 -1.47478E+00 -6.80613E-02  1.61410E-01 -7.55265E-05  1.63778E-04 -5.06953E-05  2.17381E-03 -4.64918E+00 -1.35305E-03  3.81313E-05  5.14111E-05  2.02744E-05  1.50000E+01
  2.06642E+01  2.02719E+01  1.97093E+01  4.60781E-01 -1.45399E+00 -4.59284E-02  7.57401E-01 -3.12777E-04  3.51053E-04 -1.82082E-04  3.62895E-03 -4.57284E+00  5.60240E-04  3.01650E-05  4.15644E-05  1.29586E-05  1.50000E+01
  2.06748E+01  2.02908E+01  1.97213E+01  4.57784E-01 -1.44702E+00 -5.19104E-02  5.51249E-01 -2.50375E-04  3.08686E-04 -1.39362E-04  3.59620E-03 -4.55316E+00  2.48383E-04  3.20524E-05  4.39219E-05  1.61721E-05  1.50000E+01
  2.03381E+01  2.00118E+01  1.99676E+01  3.22588E-01 -1.18750E+00 -1.00860E-03  1.09247E+00 -4.34528E-04  4.68662E-04 -4.02652E-05  2.21592E-03 -3.81878E+00 -7.10986E-05  1.83782E-05  1.84815E-05  4.20714E-07  1.50000E+01
  2.03238E+01  1.99968E+01  2.00392E+01  3.11106E-01 -1.17292E+00  8.91755E-04  1.06694E+00 -4.43842E-04  4.83211E-04  5.18062E-05  2.20481E-03 -3.97180E+00 -6.97686E-05  1.91668E-05  1.91228E-05 -4.94692E-07  1.50000E+01
  2.03227E+01  1.99978E+01  2.00105E+01  3.11709E-01 -1.17169E+00  1.43405E-04  1.06566E+00 -4.32195E-04  4.70972E-04  1.39867E-05  2.28567E-03 -3.87577E+00 -9.52381E-05  1.82994E-05  1.81661E-05 -1.32287E-07  1.50000E+01
  2.07040E+01  2.02442E+01  1.96145E+01  4.68455E-01 -1.53760E+00 -4.99748E-02  8.82725E-01 -2.89915E-04  3.35890E-04 -2.50070E-04  2.99815E-03 -4.84960E+00  8.15538E-05  2.82490E-05  3.90759E-05  9.84921E-06  1.50000E+01
  2.06310E+01  2.02531E+01  1.97404E+01  4.59169E-01 -1.42795E+00 -3.37634E-02  9.76464E-01 -3.89524E-04  4.03056E-04 -1.99041E-04  3.60346E-03 -4.48213E+00  7.93031E-04  2.83319E-05  3.83868E-05  1.05521E-05  1.50000E+01
  2.06418E+01  2.02721E+01  1.97526E+01  4.59303E-01 -1.42358E+00 -3.76864E-02  8.93466E-01 -3.52111E-04  3.81682E-04 -1.69011E-04  3.95948E-03 -4.46841E+00  7.87259E-04  3.02486E-05  4.07060E-05  1.30044E-05  1.50000E+01
  2.03091E+01  1.99803E+01  2.00538E+01  2.98258E-01 -1.15749E+00  1.09250E-03  1.04091E+00 -4.29739E-04  4.73474E-04  7.03161E-05  2.32156E-03 -3.91422E+00 -2.36613E-05  1.94372E-05  1.92642E-05 -5.75508E-07  1.50000E+01
  2.02928E+01  1.99662E+01  2.00397E+01  2.86707E-01 -1.13968E+00  6.46850E-04  1.02806E+00 -4.05978E-04  4.53780E-04  5.04656E-05  2.42683E-03 -3.78068E+00 -2.46801E-05  1.88467E-05  1.83899E-05 -4.10763E-07  1.50000E+01
  2.02945E+01  1.99634E+01  2.00679E+01  2.84811E-01 -1.14164E+00  1.18375E-03  1.02675E+00 -4.10944E-04  4.58748E-04  8.68843E-05  2.41106E-03 -3.81770E+00  2.57711E-07  1.98154E-05  1.95180E-05 -6.74388E-07  1.50000E+01
  2.04156E+01  2.00833E+01  2.00854E+01  3.74957E-01 -1.26107E+00  3.84154E-03  1.16081E+00 -4.31249E-04  4.43144E-04  9.31543E-05  1.82465E-03 -3.61887E+00  4.13031E-05  1.80844E-05  1.95112E-05 -1.63052E-06  1.50000E+01
  2.04137E+01  2.00863E+01  2.00590E+01  3.76381E-01 -1.25825E+00  2.75992E-03  1.16440E+00 -4.41704E-04  4.55196E-04  6.57044E-05  1.93620E-03 -3.68539E+00 -4.93743E-05  1.82045E-05  1.93587E-05 -1.22695E-06  1.50000E+01
  2.04261E+01  2.01035E+01  2.00179E+01  3.87130E-01 -1.26756E+00  1.07293E-03  1.18053E+00 -4.54847E-04  4.66735E-04  1.99429E-05  1.99339E-03 -3.81008E+00  3.56905E-05  1.80836E-05  1.90993E-05 -4.10508E-07  1.50000E+01
  2.04116E+01  2.00886E+01  2.00049E+01  3.77381E-01 -1.25556E+00  4.40623E-04  1.16852E+00 -4.56615E-04  4.70947E-04  5.34362E-06  2.00109E-03 -3.80221E+00  9.38043E-05  1.79749E-05  1.88290E-05 -7.46184E-08  1.50000E+01
  2.06812E+01  2.02805E+01  1.96938E+01  4.60970E-01 -1.46821E+00 -5.28755E-02  6.84469E-01 -2.60027E-04  3.13259E-04 -1.63269E-04  3.42243E-03 -4.62308E+00  2.09637E-04  3.10048E-05  4.27401E-05  1.40928E-05  1.50000E+01
  2.06882E+01  2.02692E+01  1.96668E+01  4.63877E-01 -1.49049E+00 -5.28467E-02  7.38224E-01 -2.66200E-04  3.15116E-04 -1.87822E-04  3.25663E-03 -4.69674E+00  1.51684E-04  3.01644E-05  4.14179E-05  1.20279E-05  1.50000E+01
  2.06266E+01  2.02234E+01  1.97013E+01  4.55749E-01 -1.44687E+00 -3.13857E-02  1.04597E+00 -4.34986E-04  4.26619E-04 -2.60611E-04  3.03606E-03 -4.54713E+00  7.23313E-04  2.61229E-05  3.59299E-05  7.42289E-06  1.50000E+01
  2.03177E+01  1.99653E+01  2.01384E+01  2.88057E-01 -1.16771E+00  2.65730E-03  1.03387E+00 -4.20052E-04  4.57087E-04  1.73981E-04  2.07905E-03 -3.89533E+00 -3.11877E-05  2.16622E-05  2.25109E-05 -1.43413E-06  1.50000E+01
  2.03041E+01  1.99462E+01  2.01508E+01  2.72697E-01 -1.15266E+00  2.35084E-03  1.01890E+00 -3.98216E-04  4.37766E-04  1.84240E-04  2.09928E-03 -3.79206E+00 -6.89750E-05  2.16516E-05  2.24346E-05 -1.36322E-06  1.50000E+01
  2.03218E+01  1.99575E+01  2.01654E+01  2.82698E-01 -1.17264E+00  2.96745E-03  1.04200E+00 -4.07001E-04  4.39728E-04  2.00418E-04  1.99815E-03 -3.84351E+00 -4.42352E-05  2.17369E-05  2.30384E-05 -1.51017E-06  1.50000E+01
  2.06918E+01  2.02994E+01  1.97057E+01  4.56579E-01 -1.46017E+00 -5.99008E-02  3.60102E-01 -1.89174E-04  2.61531E-04 -1.13841E-04  3.04084E-03 -4.59974E+00 -3.86510E-04  3.41481E-05  4.68485E-05  1.83194E-05  1.50000E+01
  2.06505E+01  2.02209E+01  1.96595E+01  4.58319E-01 -1.48120E+00 -3.62184E-02  1.00437E+00 -4.08142E-04  4.03325E-04 -2.82157E-04  2.86714E-03 -4.66205E+00  6.25321E-04  2.60079E-05  3.66944E-05  7.52247E-06  1.50000E+01
  2.06333E+01  2.02122E+01  1.96747E+01  4.54575E-01 -1.46422E+00 -3.19607E-02  1.05812E+00 -4.32855E-04  4.19616E-04 -2.84257E-04  2.81608E-03 -4.60479E+00  6.74729E-04  2.60662E-05  3.64091E-05  6.85945E-06  1.50000E+01
  2.03872E+01  2.00097E+01  2.01976E+01  3.26186E-01 -1.24314E+00  5.32252E-03  1.12055E+00 -4.29040E-04  4.39334E-04  2.27209E-04  1.98002E-03 -3.86661E+00 -6.89629E-05  2.14742E-05  2.47222E-05 -2.61476E-06  1.50000E+01
  2.03996E+01  2.00292E+01  2.01862E+01  3.40309E-01 -1.25443E+00  5.68860E-03  1.13636E+00 -4.33467E-04  4.41086E-04  2.11842E-04  1.89798E-03 -3.82801E+00 -1.08582E-04  2.10177E-05  2.41303E-05 -2.53146E-06  1.50000E+01
  2.03747E+01  1.99896E+01  2.02089E+01  3.11294E-01 -1.23120E+00  4.88756E-03  1.10224E+00 -4.19891E-04  4.32998E-04  2.40118E-04  1.94479E-03 -3.88687E+00 -5.22096E-05  2.20435E-05  2.54471E-05 -2.67794E-06  1.50000E+01
  2.03681E+01  2.00420E+01  1.99660E+01  3.45154E-01 -1.21690E+00 -1.13716E-03  1.11209E+00 -4.51168E-04  4.76703E-04 -4.18173E-05  2.20223E-03 -3.83947E+00 -1.05678E-05  1.82457E-05  1.87114E-05  5.50670E-07  1.50000E+01
  2.06780E+01  2.02494E+01  1.96555E+01  4.64026E-01 -1.49557E+00 -4.63839E-02  8.53455E-01 -3.36628E-04  3.65359E-04 -2.42559E-04  3.15822E-03 -4.71190E+00  4.08668E-04  2.85710E-05  3.96765E-05  9.91144E-06  1.50000E+01
  2.06858E+01  2.02370E+01  1.96294E+01  4.65150E-01 -1.51777E+00 -4.53985E-02  9.18537E-01 -3.44443E-04  3.69676E-04 -2.72670E-04  2.95465E-03 -4.78388E+00  3.25545E-04  2.72200E-05  3.82172E-05  9.03131E-06  1.50000E+01
  2.06680E+01  2.02292E+01  1.96444E+01  4.61808E-01 -1.49901E+00 -4.07480E-02  9.77772E-01 -3.80529E-04  3.88923E-04 -2.80093E-04  2.91252E-03 -4.72209E+00  5.04125E-04  2.65273E-05  3.74918E-05  8.27208E-06  1.50000E+01
  2.06163E+01  2.02030E+01  1.96898E+01  4.50486E-01 -1.44791E+00 -2.80670E-02  1.10130E+00 -4.53519E-04  4.32870E-04 -2.84178E-04  2.75098E-03 -4.55096E+00  6.69000E-04  2.55002E-05  3.53203E-05  6.35496E-06  1.50000E+01
  2.04335E+01  2.00915E+01  2.01249E+01  3.81507E-01 -1.27897E+00  5.76222E-03  1.18596E+00 -4.45101E-04  4.51843E-04  1.37840E-04  2.05296E-03 -3.76426E+00  6.87094E-05  1.97239E-05  2.20424E-05 -2.35725E-06  1.50000E+01
  2.04209E+01  2.00737E+01  2.01372E+01  3.69921E-01 -1.26940E+00  5.67053E-03  1.16532E+00 -4.35589E-04  4.43389E-04  1.51395E-04  1.82082E-03 -3.70067E+00  8.22918E-05  1.95123E-05  2.18806E-05 -2.32304E-06  1.50000E+01
  2.03142E+01  1.99718E+01  2.01107E+01  2.92533E-01 -1.16351E+00  2.23996E-03  1.04147E+00 -4.32171E-04  4.72482E-04  1.43916E-04  2.18304E-03 -3.95402E+00  2.19166E-05  2.13276E-05  2.17016E-05 -1.05527E-06  1.50000E+01
  2.02970E+01  1.99592E+01  2.00960E+01  2.81811E-01 -1.14451E+00  1.66397E-03  1.02501E+00 -4.12298E-04  4.58164E-04  1.22683E-04  2.32389E-03 -3.83135E+00  1.05947E-05  2.05301E-05  2.04491E-05 -7.51474E-07  1.50000E+01
  2.01155E+01  1.97198E+01  2.02248E+01  5.74703E-02 -8.91472E-01  0.00000E+00  5.27717E-01 -1.02051E-04  1.75927E-04  1.13521E-04  1.11710E+01  3.90445E+01 -3.71518E+01  2.91116E-05  2.55926E-05  5.40719E-07  1.50000E+01
  2.07346E+01  2.03025E+01  1.96479E+01  4.62616E-01 -1.51896E+00 -7.40677E-02 -7.21826E-02 -7.37881E-06  5.20695E-05 -1.23979E-05 -2.39129E-03 -2.40696E+00 -1.67970E-02  1.81643E-05  2.46011E-05  9.16474E-06  1.50000E+01
  2.07242E+01  2.02836E+01  1.96365E+01  4.66869E-01 -1.52672E+00 -6.53477E-02  4.23815E-01 -1.39536E-04  2.23651E-04 -1.25689E-04  2.59715E-03 -4.81661E+00 -1.05573E-03  3.46458E-05  4.67133E-05  1.53387E-05  1.50000E+01
  2.06407E+01  2.02002E+01  1.96486E+01  4.53148E-01 -1.48260E+00 -3.20406E-02  1.03658E+00 -4.29723E-04  4.10786E-04 -3.06538E-04  2.60701E-03 -4.66658E+00  6.09537E-04  2.47468E-05  3.55851E-05  6.66400E-06  1.50000E+01
  2.06234E+01  2.01914E+01  1.96636E+01  4.48521E-01 -1.46490E+00 -2.84429E-02  1.10390E+00 -4.50638E-04  4.23999E-04 -3.07035E-04  2.56793E-03 -4.60745E+00  6.31264E-04  2.50706E-05  3.55423E-05  6.09742E-06  1.50000E+01
  2.03226E+01  1.99974E+01  1.99823E+01  3.11392E-01 -1.17157E+00 -5.76787E-04  1.06611E+00 -4.25328E-04  4.63319E-04 -2.18757E-05  2.27863E-03 -3.80893E+00 -7.90070E-05  1.80498E-05  1.79267E-05  2.15917E-07  1.50000E+01
  2.04244E+01  2.00671E+01  2.01631E+01  3.66425E-01 -1.27499E+00  6.36330E-03  1.16385E+00 -4.41497E-04  4.46067E-04  1.81785E-04  1.79297E-03 -3.78978E+00 -8.67257E-05  2.03018E-05  2.32152E-05 -2.51295E-06  1.50000E+01
  2.03395E+01  1.99684E+01  2.01800E+01  2.92437E-01 -1.19242E+00  3.61188E-03  1.05625E+00 -4.11977E-04  4.38519E-04  2.14621E-04  1.90088E-03 -3.86822E+00 -4.49210E-06  2.21588E-05  2.41204E-05 -1.85339E-06  1.50000E+01
  2.03571E+01  1.99791E+01  2.01945E+01  3.01954E-01 -1.21193E+00  4.25231E-03  1.08845E+00 -4.16493E-04  4.36030E-04  2.27722E-04  1.86361E-03 -3.87558E+00 -3.85110E-06  2.19797E-05  2.47107E-05 -2.39476E-06  1.50000E+01
  2.01369E+01  1.97707E+01  2.01800E+01  1.08665E-01 -9.34256E-01 -1.07135E-03  6.74385E-01 -2.30490E-04  3.18423E-04  1.78047E-04  2.34449E-03 -2.94202E+00 -6.15730E-04  3.35464E-05  3.01122E-05  6.03025E-07  1.50000E+01
  2.01182E+01  1.97615E+01  2.01669E+01  9.81533E-02 -9.09528E-01 -1.08402E-03  6.52932E-01 -2.02688E-04  2.96352E-04  1.50290E-04  2.81422E-03 -2.84650E+00 -6.39595E-04  3.56522E-05  3.15595E-05  4.37055E-07  1.50000E+01
  2.06942E+01  2.02237E+01  1.96039E+01  4.65865E-01 -1.54070E+00 -4.36662E-02  9.71234E-01 -3.35675E-04  3.60018E-04 -2.89796E-04  2.77349E-03 -4.85879E+00  2.35402E-04  2.60905E-05  3.74619E-05  8.91346E-06  1.50000E+01
  2.02766E+01  1.99519E+01  2.00258E+01  2.74781E-01 -1.12169E+00  3.00152E-04  1.01605E+00 -3.83756E-04  4.34937E-04  3.19987E-05  2.43004E-03 -3.67375E+00 -1.42140E-05  1.84147E-05  1.77155E-05 -2.34588E-07  1.50000E+01
  2.02779E+01  1.99499E+01  2.00538E+01  2.73344E-01 -1.12310E+00  7.46437E-04  1.00051E+00 -3.90008E-04  4.41625E-04  6.72613E-05  2.47181E-03 -3.70109E+00 -1.54048E-05  1.92030E-05  1.86014E-05 -4.77550E-07  1.50000E+01
  2.04308E+01  2.00963E+01  2.00986E+01  3.83860E-01 -1.27461E+00  4.73119E-03  1.17050E+00 -4.44717E-04  4.53421E-04  1.08634E-04  2.03448E-03 -3.73637E+00  5.39195E-05  1.88879E-05  2.07029E-05 -1.98252E-06  1.50000E+01
  2.04286E+01  2.00999E+01  2.00720E+01  3.85565E-01 -1.27124E+00  3.57739E-03  1.16663E+00 -4.48838E-04  4.59362E-04  7.99731E-05  2.02682E-03 -3.74331E+00  1.44041E-05  1.86291E-05  2.00846E-05 -1.56512E-06  1.50000E+01
  2.03086E+01  1.99378E+01  2.01774E+01  2.66781E-01 -1.15780E+00  2.55477E-03  1.01121E+00 -3.88713E-04  4.24619E-04  2.10443E-04  1.94334E-03 -3.77475E+00 -8.85507E-05  2.23381E-05  2.36204E-05 -1.47762E-06  1.50000E+01
  2.02955E+01  1.99179E+01  2.01893E+01  2.50269E-01 -1.14244E+00  2.09594E-03  9.95621E-01 -3.69797E-04  4.09166E-04  2.19083E-04  1.86223E-03 -3.70591E+00 -1.34509E-04  2.32660E-05  2.45381E-05 -1.43458E-06  1.50000E+01
  2.03136E+01  1.99283E+01  2.02034E+01  2.60102E-01 -1.16359E+00  2.65832E-03  1.02866E+00 -3.81259E-04  4.13874E-04  2.35551E-04  1.80345E-03 -3.76653E+00 -1.09557E-04  2.34800E-05  2.53003E-05 -1.49592E-06  1.50000E+01
  2.06062E+01  2.01823E+01  1.96786E+01  4.43584E-01 -1.44782E+00 -2.51494E-02  1.12616E+00 -4.64868E-04  4.33118E-04 -3.04157E-04  2.51864E-03 -4.55150E+00  6.08622E-04  2.40296E-05  3.37836E-05  5.66504E-06  1.50000E+01
  2.03077E+01  1.99822E+01  2.00253E+01  2.99495E-01 -1.15589E+00  4.39295E-04  1.04091E+00 -4.20581E-04  4.63811E-04  3.26715E-05  2.37185E-03 -3.84498E+00 -5.92377E-05  1.84459E-05  1.81477E-05 -2.76989E-07  1.50000E+01
  2.03072E+01  1.99826E+01  1.99970E+01  2.99711E-01 -1.15530E+00 -2.05433E-04  1.04034E+00 -4.13038E-04  4.55544E-04 -3.38823E-06  2.33551E-03 -3.78468E+00 -6.44666E-05  1.79164E-05  1.75890E-05  4.98908E-08  1.50000E+01
  2.04271E+01  2.01023E+01  2.00451E+01  3.86644E-01 -1.26888E+00  2.34821E-03  1.17467E+00 -4.52835E-04  4.64286E-04  5.04302E-05  2.03923E-03 -3.77469E+00 -9.59712E-06  1.83641E-05  1.95432E-05 -1.04198E-06  1.50000E+01
  2.06760E+01  2.02164E+01  1.96186E+01  4.61741E-01 -1.52038E+00 -3.97998E-02  9.87272E-01 -3.86656E-04  3.91893E-04 -3.09661E-04  2.70123E-03 -4.79152E+00  4.09454E-04  2.53604E-05  3.66012E-05  7.94895E-06  1.50000E+01
  2.06582E+01  2.02085E+01  1.96336E+01  4.57529E-01 -1.50105E+00 -3.58684E-02  1.01284E+00 -4.12247E-04  4.03030E-04 -3.09975E-04  2.65314E-03 -4.72821E+00  5.32140E-04  2.47497E-05  3.59987E-05  7.46350E-06  1.50000E+01
  2.03002E+01  1.99534E+01  2.01237E+01  2.77747E-01 -1.14822E+00  2.05551E-03  1.01384E+00 -4.07273E-04  4.49840E-04  1.55324E-04  2.23834E-03 -3.81693E+00 -1.81361E-05  2.12074E-05  2.15516E-05 -1.17329E-06  1.50000E+01
  2.02829E+01  1.99412E+01  2.01093E+01  2.67120E-01 -1.12857E+00  1.50600E-03  9.93588E-01 -3.92588E-04  4.40883E-04  1.36202E-04  2.30214E-03 -3.72535E+00 -4.44310E-05  2.06625E-05  2.05359E-05 -8.84001E-07  1.50000E+01
  2.04542E+01  2.01335E+01  1.99895E+01  4.05539E-01 -1.28910E+00 -4.02584E-04  1.17324E+00 -4.59435E-04  4.68263E-04 -1.18519E-05  2.03298E-03 -3.91505E+00  8.34483E-06  1.92254E-05  2.05218E-05  2.94564E-07  1.50000E+01
  2.04402E+01  2.01180E+01  1.99762E+01  3.96267E-01 -1.27883E+00 -1.04758E-03  1.18611E+00 -4.63629E-04  4.74013E-04 -2.73097E-05  2.01103E-03 -3.89336E+00  3.11857E-05  1.90269E-05  2.02417E-05  6.33213E-07  1.50000E+01
  2.04401E+01  2.01186E+01  2.00038E+01  3.96592E-01 -1.27846E+00  3.93412E-04  1.18469E+00 -4.57619E-04  4.67927E-04  3.80264E-06  2.00741E-03 -3.86362E+00  1.87960E-05  1.86732E-05  1.98125E-05 -1.13355E-07  1.50000E+01
  2.06846E+01  2.02028E+01  1.95935E+01  4.61326E-01 -1.54249E+00 -3.82361E-02  1.03523E+00 -3.79367E-04  3.82876E-04 -3.28341E-04  2.51914E-03 -4.86390E+00  3.07777E-04  2.36250E-05  3.56936E-05  8.41192E-06  1.50000E+01
  2.04406E+01  2.00786E+01  2.01772E+01  3.74968E-01 -1.29068E+00  7.36776E-03  1.17291E+00 -4.50274E-04  4.50396E-04  1.97074E-04  1.94135E-03 -3.87263E+00 -5.85241E-05  2.08679E-05  2.42791E-05 -2.67291E-06  1.50000E+01
  2.04367E+01  2.00856E+01  2.01511E+01  3.78524E-01 -1.28433E+00  6.63967E-03  1.17014E+00 -4.47431E-04  4.51565E-04  1.67382E-04  2.00355E-03 -3.81515E+00  3.14173E-05  2.03941E-05  2.32828E-05 -2.65187E-06  1.50000E+01
  2.02800E+01  1.99463E+01  2.00816E+01  2.70781E-01 -1.12541E+00  1.15664E-03  1.00028E+00 -3.92977E-04  4.43977E-04  1.02403E-04  2.40984E-03 -3.71971E+00 -2.46489E-05  2.01593E-05  1.97296E-05 -6.71507E-07  1.50000E+01
  2.03318E+01  1.99384E+01  2.02174E+01  2.69790E-01 -1.18457E+00  3.22956E-03  1.05878E+00 -3.89072E-04  4.13985E-04  2.49294E-04  1.76927E-03 -3.81730E+00 -9.18976E-05  2.32464E-05  2.57824E-05 -1.82675E-06  1.50000E+01
  2.03499E+01  1.99484E+01  2.02315E+01  2.79347E-01 -1.20539E+00  3.79739E-03  1.05778E+00 -3.96825E-04  4.14895E-04  2.62686E-04  1.76373E-03 -3.86121E+00 -9.50996E-05  2.31705E-05  2.66576E-05 -2.44273E-06  1.50000E+01
  2.03444E+01  1.99589E+01  2.02060E+01  2.86205E-01 -1.19855E+00  3.76889E-03  1.06860E+00 -4.03394E-04  4.25269E-04  2.39033E-04  1.84390E-03 -3.85481E+00 -4.61858E-05  2.23434E-05  2.49927E-05 -2.14896E-06  1.50000E+01
  2.00996E+01  1.97521E+01  2.01539E+01  8.72526E-02 -8.84645E-01 -9.70748E-04  6.26630E-01 -1.81720E-04  2.76033E-04  1.24495E-04  3.37049E-03 -2.74242E+00 -6.29290E-04  3.61624E-05  3.19561E-05 -1.70489E-07  1.50000E+01
  2.00855E+01  1.97339E+01  2.01651E+01  6.80633E-02 -8.62119E-01 -8.79310E-04  5.66012E-01 -1.58684E-04  2.67736E-04  1.28451E-04  3.21596E-03 -2.65287E+00 -8.74766E-04  4.24555E-05  3.69566E-05 -5.46515E-07  1.50000E+01