TITLE="3D TRIANGULAR SURFACE DATA"
VARIABLES="X","Y","Z"
ZONE T="unstruc" N=1757 E=3355 F=FEPOINT ET=TRIANGLE
0.4090738892555237 0.08507011085748672 0.09322288632392883
0.4373554289340973 0.1178818792104721 0.09376087039709091
0.42680060863494873 0.0947510153055191 0.07361055910587311
0.4102981388568878 0.10052521526813507 0.12190254032611847
0.4296598434448242 0.10138926655054092 0.11349230259656906
0.4481712877750397 0.09906621277332306 0.10592009872198105
0.44643840193748474 0.09494584053754807 0.08214499056339264
0.4239262640476227 0.09176696836948395 0.04778091982007027
0.40647023916244507 0.09052135795354843 0.06422732770442963
0.40727826952934265 0.10178431123495102 0.03653963655233383
0.4303661584854126 0.10705295205116272 0.13853897154331207
0.44533097743988037 0.09342078119516373 0.1286228895187378
0.3785589933395386 0.1298312097787857 0.09243494272232056
0.37656867504119873 0.12609007954597473 0.06541023403406143
0.3605801463127136 0.13933371007442474 0.0785653218626976
0.3930848240852356 0.10779885947704315 0.10641560703516006
0.3804752826690674 0.13543416559696198 0.11904759705066681
0.3980809152126312 0.12809331715106964 0.1337348222732544
0.3911503851413727 0.10285868495702744 0.07907196134328842
0.3920280933380127 0.11358515918254852 0.05118609219789505
0.45835477113723755 0.07465900480747223 0.09435024112462997
0.45674946904182434 0.07095111161470413 0.0695812851190567
0.46020716428756714 0.0795489028096199 0.11882201582193375
0.44034698605537415 0.08134190738201141 0.05880243703722954
0.45464664697647095 0.06807440519332886 0.04444625973701477
0.3907327353954315 0.1126052662730217 0.023774903267621994
0.4225460886955261 0.09064383804798126 0.02131541259586811
0.40633299946784973 0.10172048956155777 0.009041905403137207
0.38268014788627625 0.14307737350463867 0.14541244506835938
0.4005080759525299 0.13625489175319672 0.15978936851024628
0.7112205028533936 -0.08819302171468735 -0.31721004843711853
0.6947479844093323 -0.07932896912097931 -0.3025730848312378
0.7043564319610596 -0.10358058661222458 -0.2916496992111206
0.6882613897323608 -0.09415052831172943 -0.27682918310165405
0.6980793476104736 -0.11769413203001022 -0.2655338644981384
0.7698038220405579 -0.05550377070903778 -0.36047640442848206
0.7460532188415527 -0.092404805123806 -0.3460904061794281
0.7627848982810974 -0.0719311386346817 -0.335782915353775
0.4618586301803589 0.08549441397190094 0.14311952888965607
0.7563629150390625 -0.08692824095487595 -0.31039097905158997
0.7708372473716736 -0.07116006314754486 -0.32359012961387634
0.46862512826919556 0.05364703759551048 0.031002722680568695
0.45352235436439514 0.06677636504173279 0.018721804022789
0.4152609705924988 0.12102732807397842 0.14854294061660767
0.4181782603263855 0.13008825480937958 0.17436309158802032
0.4326563775539398 0.11481064558029175 0.16365092992782593
0.3898025453090668 0.11295855790376663 -0.0039415922947227955
0.4220237135887146 0.0908459722995758 -0.0057728467509150505
0.4059296250343323 0.10250619798898697 -0.01823331229388714
0.7025149464607239 -0.152822807431221 -0.2270350158214569
0.7198935747146606 -0.1504906266927719 -0.24222198128700256
0.7079296708106995 -0.14092086255550385 -0.25401243567466736
0.47402241826057434 0.06392639130353928 0.1070985272526741
0.16353170573711395 0.29571861028671265 0.16001039743423462
0.14806775748729706 0.29527294635772705 0.16433478891849518
0.1667313128709793 0.29087525606155396 0.17679151892662048
0.7588139176368713 -0.10006609559059143 -0.27156656980514526
0.7607515454292297 -0.1170898973941803 -0.2845255434513092
0.764506459236145 -0.08638669550418854 -0.2979016900062561
0.7140010595321655 -0.12755854427814484 -0.28048092126846313
0.725490927696228 -0.13809581100940704 -0.26905858516693115
0.3897046446800232 0.11404691636562347 -0.030800525099039078
0.3748660087585449 0.12436112761497498 0.038009315729141235
0.3736341893672943 0.12386054545640945 0.01027078740298748
0.7541159987449646 -0.07434966415166855 -0.3704881966114044
0.6823980212211609 -0.10747797787189484 -0.25058647990226746
0.6923558712005615 -0.13051089644432068 -0.23893693089485168
0.3587934076786041 0.13648280501365662 0.05152647942304611
0.3411550223827362 0.1461401879787445 0.03802668675780296
0.34241440892219543 0.1487000286579132 0.06479653716087341
0.47211354970932007 0.05915111303329468 0.08205385506153107
0.47014856338500977 0.05568015202879906 0.05658606067299843
0.48277515172958374 0.03941570222377777 0.01737118512392044
0.4679577946662903 0.053096041083335876 0.004793344531208277
0.7316897511482239 -0.12435604631900787 -0.29533612728118896
0.7385499477386475 -0.10912865400314331 -0.3210364878177643
0.6785464882850647 -0.06991477310657501 -0.2878964841365814
0.36456620693206787 0.1504146009683609 0.13155497610569
0.34895169734954834 0.1649078130722046 0.14361411333084106
0.3671211898326874 0.15820209681987762 0.1575114130973816
0.7505805492401123 -0.10041756927967072 -0.28435206413269043
0.7018417716026306 -0.06307017058134079 -0.3277718126773834
0.6851761937141418 -0.054587945342063904 -0.3132362961769104
0.4358251392841339 0.12377545237541199 0.1889198124408722
0.45017290115356445 0.10819174349308014 0.17826570570468903
0.4213598668575287 0.1393934041261673 0.19954277575016022
0.4219922423362732 0.09212972223758698 -0.0324539951980114
0.7280192375183105 -0.09656774252653122 -0.33175602555274963
0.7358899712562561 -0.0790453851222992 -0.3564620912075043
0.7186797261238098 -0.0713520273566246 -0.3422063887119293
0.6686543226242065 -0.04585715010762215 -0.2986856997013092
0.48896825313568115 0.05309746414422989 0.12019532918930054
0.4759702682495117 0.06997129321098328 0.13203467428684235
0.3625315725803375 0.14405061304569244 0.105366051197052
0.34414705634117126 0.15266117453575134 0.09148488193750381
0.15646272897720337 0.3097530007362366 0.17633941769599915
0.773115336894989 -0.08907292783260345 -0.33576828241348267
0.7778154015541077 -0.05429285019636154 -0.3485835790634155
0.6921898722648621 -0.03852727264165878 -0.3380396068096161
0.6751856207847595 -0.03087211772799492 -0.32365432381629944
0.3733064532279968 0.1242101788520813 -0.0166659876704216
0.47821101546287537 0.07710739970207214 0.1566384732723236
0.38524654507637024 0.1517692506313324 0.17153222858905792
0.4033573567867279 0.14554667472839355 0.18553538620471954
0.17219027876853943 0.28202274441719055 0.16263730823993683
0.15376612544059753 0.2873888313770294 0.15021489560604095
0.7442911863327026 -0.06043661758303642 -0.38052597641944885
0.3238735496997833 0.1555698961019516 0.02478902041912079
0.32484036684036255 0.15751855075359344 0.05139799043536186
0.4867616891860962 0.04750550538301468 0.09490485489368439
0.4849822223186493 0.04342105984687805 0.0693574845790863
0.35202115774154663 0.17278702557086945 0.16895322501659393
0.3369256854057312 0.18689458072185516 0.1801186352968216
0.35546717047691345 0.1815747171640396 0.1935957968235016
0.6583560109138489 -0.022796854376792908 -0.3092198371887207
0.3574146628379822 0.13501431047916412 0.024297034367918968
0.35684195160865784 0.13462674617767334 -0.0026605611201375723
0.48363107442855835 0.040741633623838425 0.04351259022951126
0.7266239523887634 -0.053489625453948975 -0.36657044291496277
0.7092822194099426 -0.046204812824726105 -0.3523711562156677
0.3463355004787445 0.15815521776676178 0.11782548576593399
0.3283129632472992 0.1655993014574051 0.10410857945680618
0.511311948299408 0.011151881888508797 -0.010129476897418499
0.4971255660057068 0.02612302638590336 -0.022957146167755127
0.4970780313014984 0.025419550016522408 0.0036639892496168613
0.7348862886428833 -0.03526720032095909 -0.390270859003067
0.4945470988750458 0.06817605346441269 0.17029701173305511
0.4915543496608734 0.06002580747008324 0.14534230530261993
0.32634708285331726 0.1608516424894333 0.07784581929445267
0.37395718693733215 0.17624500393867493 0.20706748962402344
0.3924417197704315 0.1708708107471466 0.2206304371356964
0.3885803818702698 0.16076630353927612 0.19637031853199005
0.13568215072155 0.29336294531822205 0.13803771138191223
0.12745624780654907 0.30673325061798096 0.13517414033412933
0.1452743262052536 0.3009580075740814 0.14748787879943848
0.6821311712265015 -0.0150450449436903 -0.3480670154094696
0.6650174260139465 -0.007406102959066629 -0.33376938104629517
0.3336358964443207 0.17873196303844452 0.1553124636411667
0.41082170605659485 0.16534686088562012 0.2341342270374298
0.42918840050697327 0.15993274748325348 0.24752052128314972
0.4249815046787262 0.14924171566963196 0.22379514575004578
0.48247089982032776 0.0394526943564415 -0.009058069437742233
0.16571885347366333 0.27441439032554626 0.1455649584531784
0.14763754606246948 0.28043845295906067 0.1332428902387619
0.6480703353881836 0.0006771447951905429 -0.31949421763420105
0.370343416929245 0.16681766510009766 0.18263870477676392
0.5108312368392944 0.058833010494709015 0.1839449554681778
0.5074671506881714 0.05005108565092087 0.15885773301124573
0.406813383102417 0.1549624800682068 0.21014519035816193
0.422613263130188 0.09465953707695007 -0.0589953251183033
0.43799057602882385 0.0816275104880333 -0.04660836607217789
0.4389837086200714 0.08480066061019897 -0.0731033906340599
0.5393747091293335 -0.018739907070994377 -0.03796083852648735
0.5261950492858887 -0.001464736764319241 -0.050891246646642685
0.5253819823265076 -0.0037567950785160065 -0.023997649550437927
0.7938953638076782 0.0003476236015558243 -0.4300970733165741
0.771681010723114 -0.03530673682689667 -0.41711539030075073
0.7854707837104797 -0.01895718276500702 -0.4076707065105438
0.6720536947250366 0.008769722655415535 -0.3578048050403595
0.654816210269928 0.01637052744626999 -0.34365397691726685
0.4392075538635254 0.13338421285152435 0.21341590583324432
0.4430941641330719 0.1434812694787979 0.23737873136997223
0.4570517838001251 0.12718521058559418 0.22707045078277588
0.3403516709804535 0.1449536830186844 0.011198009364306927
0.3234548568725586 0.15497353672981262 -0.0018798100063577294
0.4376593828201294 0.07968628406524658 -0.02001926675438881
0.4530752897262573 0.06694769114255905 -0.007629967760294676
0.4532168507575989 0.06838070601224899 -0.03414859250187874
0.1752752661705017 0.3060392737388611 0.18875128030776978
0.7170462608337402 -0.02892700769007206 -0.37637653946876526
0.6994583010673523 -0.022244969382882118 -0.3622629642486572
0.34016740322113037 0.14514613151550293 -0.015578238293528557
0.3405895531177521 0.1466778814792633 -0.04209598898887634
0.32360851764678955 0.1557852327823639 -0.028374139219522476
0.5045973062515259 0.04266657680273056 0.13356906175613403
0.30741557478904724 0.16626490652561188 0.03806297481060028
0.30864229798316956 0.16889989376068115 0.0644102543592453
0.390341579914093 0.11644572019577026 -0.05740182846784592
0.37360310554504395 0.12594544887542725 -0.04333337023854256
0.4061712324619293 0.10424167662858963 -0.044918257743120193
0.46791180968284607 0.053856976330280304 -0.02165166847407818
0.4827948808670044 0.040864840149879456 -0.03564520552754402
0.7774232625961304 -0.037687163800001144 -0.38446930050849915
0.7934018969535828 -0.016522996127605438 -0.39635512232780457
0.6375985741615295 0.02401433140039444 -0.3295539617538452
0.5153480172157288 0.019991405308246613 0.09561531990766525
0.5135696530342102 0.015687376260757446 0.06945562362670898
0.500154435634613 0.03164815530180931 0.08235593140125275
0.453349232673645 0.11726626753807068 0.20286203920841217
0.4986179769039154 0.028237294405698776 0.05634119734168053
0.5021486282348633 0.03649817779660225 0.10809031128883362
0.3103986978530884 0.1729041486978531 0.09058751165866852
0.3125647008419037 0.17813897132873535 0.11640163511037827
0.35690486431121826 0.1355680674314499 -0.02938712202012539
0.2944696247577667 0.18466471135616302 0.10300321131944656
0.27643129229545593 0.19152946770191193 0.08967794477939606
0.27872785925865173 0.196860209107399 0.11511475592851639
0.12976254522800446 0.28712472319602966 0.12124110013246536
0.1179656982421875 0.2999255061149597 0.1259869635105133
0.6617733240127563 0.032375920563936234 -0.3673100471496582
0.6442406177520752 0.03937476500868797 -0.35333889722824097
0.39156484603881836 0.12011447548866272 -0.08373977988958359
0.4070712625980377 0.10720735788345337 -0.07141592353582382
0.5203638672828674 0.03229567036032677 0.14711222052574158
0.49758127331733704 0.026132166385650635 0.030112380161881447
0.330789715051651 0.1715756058692932 0.12994098663330078
0.3152674436569214 0.18456898629665375 0.14174556732177734
0.2999405264854431 0.19777712225914001 0.15329642593860626
0.296945720911026 0.19060224294662476 0.12833957374095917
0.2815267741680145 0.20340947806835175 0.14005926251411438
0.1624026745557785 0.2668224275112152 0.12273014336824417
0.14440341293811798 0.27356991171836853 0.11059257388114929
0.7251087427139282 -0.011384072713553905 -0.3997441828250885
0.43379926681518555 0.17166301608085632 0.2707217037677765
0.44749513268470764 0.15460045635700226 0.2608833312988281
0.5122362971305847 0.012715845368802547 0.0431087464094162
0.5114843249320984 0.011181619949638844 0.016579190269112587
0.5176412463188171 0.02558889612555504 0.1214720606803894
0.5362228751182556 0.02205016277730465 0.1608424335718155
0.5235607028007507 0.0403670035302639 0.17254380881786346
0.3746070861816406 0.12898841500282288 -0.06981053203344345
0.3761272430419922 0.1332389861345291 -0.09594551473855972
0.40854424238204956 0.11149007827043533 -0.09765975177288055
0.39335519075393677 0.12507925927639008 -0.109764963388443
0.7809993028640747 -0.015007352456450462 -0.4392915964126587
0.6267832517623901 0.04658162221312523 -0.3393608629703522
0.2924972474575043 0.180079385638237 0.07718942314386368
0.35760974884033203 0.13780109584331512 -0.05591437965631485
0.4522760808467865 0.166600301861763 0.283966600894928
0.4657898247241974 0.14920952916145325 0.27424356341362
0.29013001918792725 0.17480526864528656 0.024940790608525276
0.27288246154785156 0.18348999321460724 0.01197147835046053
0.273489385843277 0.18481622636318207 0.03801630437374115
0.4852279722690582 0.04781968519091606 -0.0887884572148323
0.46963268518447876 0.05951499566435814 -0.07473456114530563
0.48373210430145264 0.04364493489265442 -0.062251050025224686
0.4990466833114624 0.03166375309228897 -0.07631045579910278
0.4977908730506897 0.02822345495223999 -0.0496428906917572
0.7626960873603821 -0.05515717342495918 -0.3941795825958252
0.6511858105659485 0.055309027433395386 -0.3765862286090851
0.6334323883056641 0.06189423426985741 -0.3627433776855469
0.31841522455215454 0.19224141538143158 0.1666950136423111
0.30344143509864807 0.20612168312072754 0.1777542680501938
0.32203027606010437 0.20110775530338287 0.19098393619060516
0.3068233132362366 0.1649986207485199 0.011683269403874874
0.2897554337978363 0.17423810064792633 -0.0012907084310427308
0.4612216651439667 0.13779298961162567 0.2509119510650635
0.4792662262916565 0.13206177949905396 0.2643459141254425
0.3407134711742401 0.19609808921813965 0.20429028570652008
0.3260754644870758 0.21105627715587616 0.21477854251861572
0.27470993995666504 0.18749696016311646 0.06396857649087906
0.29100361466407776 0.1767468899488449 0.05112059414386749
0.4239025413990021 0.09842832386493683 -0.08539211750030518
0.44053518772125244 0.08920351415872574 -0.09939119964838028
0.4256381690502167 0.10317298769950867 -0.11156409233808517
0.12683816254138947 0.2809109687805176 0.09865127503871918
0.11235413700342178 0.29440242052078247 0.10948475450277328
0.7071619629859924 -0.005199740640819073 -0.38590213656425476
0.6894803643226624 0.0015493707032874227 -0.37192875146865845
0.5519733428955078 0.011376232840120792 0.17466208338737488
0.5397168397903442 0.030697060748934746 0.18631252646446228
0.3594287633895874 0.1913163661956787 0.21756283938884735
0.5283101797103882 0.002500030444934964 0.08281155675649643
0.5266885757446289 -0.0013288463233038783 0.056328244507312775
0.5189294815063477 0.07970065623521805 0.2332863211631775
0.5146539211273193 0.06867958605289459 0.2087501883506775
0.5018191337585449 0.08725907653570175 0.21962162852287292
0.2847789525985718 0.21126264333724976 0.16460838913917542
0.1596110761165619 0.26037952303886414 0.09905783087015152
0.1419259011745453 0.2676933705806732 0.08699098974466324
0.7152028679847717 0.012406961992383003 -0.40894386172294617
0.39573171734809875 0.13129116594791412 -0.1354176253080368
0.41060930490493774 0.11702902615070343 -0.12357602268457413
0.4980209469795227 0.07750533521175385 0.19508518278598785
0.4846043288707733 0.09452465921640396 0.20594556629657745
0.37804684042930603 0.1864812821149826 0.23092181980609894
0.5256486535072327 -0.0036795297637581825 0.029700223356485367
0.5436956286430359 0.04049871489405632 0.21144090592861176
0.5272030234336853 0.04953308403491974 0.19766180217266083
0.40134984254837036 0.19319872558116913 0.2672257125377655
0.4201502501964569 0.18874064087867737 0.2803248167037964
0.41531872749328613 0.17670293152332306 0.2575171887874603
0.38254353404045105 0.19758979976177216 0.2541167736053467
0.396718829870224 0.18160590529441833 0.24424314498901367
0.34158194065093994 0.14953400194644928 -0.06835659593343735
0.35887664556503296 0.14135640859603882 -0.0821436420083046
0.45392146706581116 0.07101624459028244 -0.060680411756038666
0.46845704317092896 0.05598539486527443 -0.04819134622812271
0.44262441992759705 0.09489394724369049 -0.12545771896839142
0.4278665781021118 0.10914364457130432 -0.13738153874874115
0.12475290894508362 0.2758677303791046 0.07526953518390656
0.10993548482656479 0.28903961181640625 0.08700274676084518
0.7803077697753906 -0.07268775254487991 -0.3603340983390808
0.7853427529335022 -0.036083921790122986 -0.37284907698631287
0.6157347559928894 0.06871875375509262 -0.3488823175430298
0.3782254755496979 0.13869035243988037 -0.12170671671628952
0.5484936237335205 0.002778136869892478 0.1488354504108429
0.5331283807754517 0.01434861496090889 0.13508714735507965
0.5304595232009888 0.007765224669128656 0.10907674580812454
0.3637508451938629 0.2020369917154312 0.24101178348064423
0.34498563408851624 0.20656251907348633 0.22786343097686768
0.30669188499450684 0.16511860489845276 -0.014705752022564411
0.30713751912117004 0.16659104824066162 -0.04097772389650345
0.3243860602378845 0.15802335739135742 -0.05461500957608223
0.5117594003677368 0.012636854313313961 -0.03690676763653755
0.45713716745376587 0.08000778406858444 -0.11336145550012589
0.4552623927593231 0.07486480474472046 -0.08712436258792877
0.47139105200767517 0.06441870331764221 -0.10111206769943237
0.15746088325977325 0.25517261028289795 0.07493074238300323
0.14017488062381744 0.26324179768562317 0.06289651244878769
0.7965809106826782 -0.03529471158981323 -0.40718045830726624
0.8020696640014648 0.004724046215415001 -0.419085294008255
0.6971814036369324 0.018708156421780586 -0.3951980471611023
0.6793901324272156 0.025434382259845734 -0.38132110238075256
0.5534321069717407 -0.03344513103365898 -0.05207788199186325
0.5525758862495422 -0.03571249172091484 -0.024891322478652
0.5664570331573486 -0.05062657222151756 -0.03895625099539757
0.5429865717887878 -0.01079981867223978 0.09637096524238586
0.541056215763092 -0.015461939387023449 0.06978805363178253
0.47485801577568054 0.12098497897386551 0.24068410694599152
0.5252105593681335 -0.004496000241488218 0.002891856012865901
0.43883001804351807 0.18415096402168274 0.2934226393699646
0.28998488187789917 0.17500890791416168 -0.027469413354992867
0.27285081148147583 0.1835625171661377 -0.014071440324187279
0.6403926014900208 0.07798130810260773 -0.38556715846061707
0.6224747896194458 0.08481305092573166 -0.37188464403152466
0.2560868561267853 0.19326965510845184 -0.026707783341407776
0.2558322846889496 0.19250358641147614 -0.0008019643137231469
0.5397129058837891 -0.018604889512062073 0.04301680624485016
0.5389738082885742 -0.020215682685375214 0.016107972711324692
0.5455006957054138 -0.0046490151435136795 0.12273358553647995
0.5647809505462646 0.042857833206653595 0.25006571412086487
0.5765520930290222 0.022400490939617157 0.23921939730644226
0.560126781463623 0.03138025477528572 0.22529684007167816
0.07776229083538055 0.3154467046260834 0.09958279877901077
0.07568290084600449 0.3325991928577423 0.10554435104131699
0.08265836536884308 0.32060056924819946 0.11020860075950623
0.7052010297775269 0.03643336147069931 -0.4178842604160309
0.5275954008102417 0.0023253776598721743 -0.07777544856071472
0.5405505299568176 -0.01566413603723049 -0.0650104284286499
0.23888850212097168 0.20159880816936493 -0.013520043343305588
0.23891595005989075 0.20152677595615387 0.012194138020277023
0.3257101774215698 0.16158702969551086 -0.08064107596874237
0.30824071168899536 0.1693982481956482 -0.06701020151376724
0.34314826130867004 0.15368613600730896 -0.0943465456366539
0.538862407207489 -0.020261915400624275 -0.010937190614640713
0.1230984777212143 0.2722485065460205 0.05123400688171387
0.10805656015872955 0.28490930795669556 0.06367374211549759
0.7530288696289062 -0.04128582403063774 -0.4039057195186615
0.7621227502822876 -0.021712535992264748 -0.42657920718193054
0.7433882355690002 -0.016913846135139465 -0.4133494198322296
0.6046764254570007 0.09174153208732605 -0.3582274913787842
0.28858649730682373 0.22038915753364563 0.18858252465724945
0.2739863097667694 0.23530545830726624 0.1990283578634262
0.2928764820098877 0.2306877076625824 0.21190090477466583
0.2908070683479309 0.17709125578403473 -0.053470999002456665
0.36066362261772156 0.14617164433002472 -0.10803982615470886
0.567645788192749 0.0005831135204061866 0.18857058882713318
0.5558825135231018 0.021048476919531822 0.2001592069864273
0.5528349280357361 0.06314638257026672 0.2607007324695587
0.5480619668960571 0.05129113793373108 0.236256942152977
0.08914851397275925 0.322802871465683 0.0907081812620163
0.07383572310209274 0.3152352273464203 0.08242908865213394
0.6870426535606384 0.04242013394832611 -0.40420302748680115
0.669049084186554 0.04876156151294708 -0.3903962969779968
0.5144115090370178 0.01988425850868225 -0.09038408100605011
0.5127988457679749 0.015576845966279507 -0.06368598341941833
0.4575207531452179 0.1795298308134079 0.3064863383769989
0.4707704782485962 0.16158834099769592 0.29714235663414
0.44425445795059204 0.19713611900806427 0.3154178261756897
0.26060280203819275 0.20313997566699982 0.10188353806734085
0.25614750385284424 0.19312797486782074 0.025052068755030632
0.5638071894645691 -0.008958726190030575 0.16271324455738068
0.15588949620723724 0.25138387084007263 0.05037263035774231
0.13876080513000488 0.2603612244129181 0.038542795926332474
0.7714046835899353 -0.002482806099578738 -0.44849109649658203
0.6293749809265137 0.10072556883096695 -0.39431220293045044
0.6110830307006836 0.10608714073896408 -0.38079774379730225
0.5059945583343506 0.09779899567365646 0.24388673901557922
0.5104509592056274 0.10880693048238754 0.26770368218421936
0.5234658122062683 0.09107759594917297 0.2574789524078369
0.36855006217956543 0.21375620365142822 0.2636450529098511
0.26622703671455383 0.2165609896183014 0.1514822095632553
0.2570829689502716 0.19514767825603485 0.05089057609438896
0.2585179805755615 0.19849273562431335 0.07647005468606949
0.5554438829421997 -0.02936001680791378 0.0834340825676918
0.5538049936294556 -0.03325152397155762 0.0565267838537693
0.5022693276405334 0.13847880065441132 0.3008400499820709
0.5152145624160767 0.12041465193033218 0.2911377251148224
0.49726271629333496 0.12623515725135803 0.27770113945007324
0.2425539493560791 0.2766764461994171 0.22705905139446259
0.23239511251449585 0.2960714101791382 0.2262064814567566
0.25149497389793396 0.29298919439315796 0.23874403536319733
0.08329246193170547 0.33238518238067627 0.11877073347568512
0.08821213245391846 0.3138652741909027 0.11884984374046326
0.6948933005332947 0.059538669884204865 -0.4265115559101105
0.500862717628479 0.036538176238536835 -0.10285526514053345
0.27864015102386475 0.24608956277370453 0.2214445024728775
0.2977146804332733 0.2419120967388153 0.23415687680244446
0.4840294122695923 0.14382487535476685 0.28755077719688416
0.38751497864723206 0.20961283147335052 0.27664899826049805
0.30732017755508423 0.21565774083137512 0.2016301304101944
0.31167131662368774 0.2262805849313736 0.22479180991649628
0.26315757632255554 0.20919278264045715 0.12691745162010193
0.5527669191360474 -0.03561749681830406 0.02950221300125122
0.46315521001815796 0.1929662525653839 0.32829543948173523
0.4761955738067627 0.17484022676944733 0.31946656107902527
0.5281968116760254 0.10268298536539078 0.2812383472919464
0.5814743638038635 0.0343548059463501 0.26396670937538147
0.12205678224563599 0.2700067460536957 0.026831097900867462
0.10668288171291351 0.28216543793678284 0.039668142795562744
0.8111649751663208 0.027050793170928955 -0.44100844860076904
0.81505286693573 0.007681656628847122 -0.450787216424942
0.8205864429473877 0.05001956969499588 -0.4621220827102661
0.6765549778938293 0.06535007059574127 -0.41293570399284363
0.6583909392356873 0.0713822990655899 -0.39927712082862854
0.48727595806121826 0.05344744026660919 -0.115159772336483
0.39851635694503784 0.13840587437152863 -0.16075347363948822
0.3807622790336609 0.14522044360637665 -0.14711691439151764
0.37393614649772644 0.225918248295784 0.28540459275245667
0.392999529838562 0.22215047478675842 0.2982493042945862
0.3167080581188202 0.2377694696187973 0.24695396423339844
0.33062630891799927 0.22202543914318085 0.237775981426239
0.34960389137268066 0.21786290407180786 0.2507392466068268
0.5523788928985596 -0.036443427205085754 0.0023375984746962786
0.5576761364936829 -0.02398810349404812 0.11011338979005814
0.5604705810546875 -0.017156461253762245 0.13656677305698395
0.5408490300178528 0.08405227959156036 0.2710913419723511
0.5358491539955139 0.07141416519880295 0.24699397385120392
0.32408976554870605 0.2489275336265564 0.26404857635498047
0.31539735198020935 0.2650679349899292 0.26217061281204224
0.3346150815486908 0.2617946267127991 0.27489525079727173
0.3432130515575409 0.24528087675571442 0.27685749530792236
0.35379981994628906 0.25860896706581116 0.28773707151412964
0.2616555690765381 0.2736755311489105 0.23966659605503082
0.2706626057624817 0.2900010049343109 0.2512894868850708
0.0964888483285904 0.30250677466392517 0.09804289788007736
0.08660551905632019 0.310328871011734 0.08581322431564331
0.09165112674236298 0.31531012058258057 0.10302242636680603
0.830237090587616 0.07326743751764297 -0.4824475347995758
0.8117519021034241 0.04009156674146652 -0.47265663743019104
0.6843173503875732 0.0824735090136528 -0.4348621368408203
0.46911588311195374 0.206486776471138 0.34936630725860596
0.47721555829048157 0.22016270458698273 0.36603856086730957
0.48808935284614563 0.20256683230400085 0.36219191551208496
0.35481423139572144 0.2298075407743454 0.2725794017314911
0.36233508586883545 0.24166522920131683 0.2896059453487396
0.24256345629692078 0.20971129834651947 0.08878126740455627
0.24492290616035461 0.21521534025669098 0.11380524933338165
0.23950029909610748 0.202863872051239 0.03792722523212433
0.4064614474773407 0.20539937913417816 0.289587140083313
0.45013684034347534 0.21042127907276154 0.33662569522857666
0.4581236243247986 0.22390006482601166 0.3532903790473938
0.2963361442089081 0.2684272229671478 0.2493004947900772
0.2807951271533966 0.2708410322666168 0.2522493600845337
0.2999572157859802 0.26819664239883423 0.264892578125
0.31922927498817444 0.2657175064086914 0.27759987115859985
0.1548137366771698 0.2491174042224884 0.02570023387670517
0.13818995654582977 0.2588788866996765 0.013987036421895027
0.09213404357433319 0.3237021267414093 0.10380539298057556
0.752243161201477 0.0017149131745100021 -0.435725599527359
0.7335279583930969 0.006706382147967815 -0.42248469591140747
0.5927702188491821 0.1114969402551651 -0.36728358268737793
0.4736579954624176 0.07057254761457443 -0.1273374706506729
0.2217990607023239 0.21041318774223328 -0.0004291266086511314
0.20491832494735718 0.21979643404483795 -0.012916626408696175
0.20494213700294495 0.21979638934135437 0.012527172453701496
0.27342528104782104 0.18502725660800934 -0.040035851299762726
0.2569494843482971 0.19537654519081116 -0.05239531397819519
0.36298203468322754 0.15207643806934357 -0.13350187242031097
0.24782095849514008 0.22216099500656128 0.13843446969985962
0.42535829544067383 0.2012237161397934 0.30248740315437317
0.43108540773391724 0.214441180229187 0.3238040506839752
0.3358100354671478 0.2337287813425064 0.2597723603248596
0.5313371419906616 0.05990875884890556 0.2224813550710678
0.43903490900993347 0.2275816798210144 0.3405480682849884
0.419828325510025 0.23100154101848602 0.32781505584716797
0.4305238127708435 0.24572138488292694 0.33904263377189636
0.27718451619148254 0.27172231674194336 0.2364286631345749
0.1218116506934166 0.2693057656288147 0.0024140409659594297
0.10607503354549408 0.2807294726371765 0.015406838618218899
0.08528713136911392 0.3180694878101349 0.07329374551773071
0.6659663915634155 0.08863846212625504 -0.42140448093414307
0.6476828455924988 0.09478282928466797 -0.4078657627105713
0.6092714667320251 0.0038077542558312416 0.2672991454601288
0.5929296016693115 0.013172822073101997 0.25322169065475464
0.5982313752174377 0.02593311481177807 0.2779335081577301
0.4017959535121918 0.14659877121448517 -0.18559785187244415
0.4162745475769043 0.1316952109336853 -0.17436717450618744
0.2220872938632965 0.21113578975200653 -0.025973431766033173
0.2667466700077057 0.26022452116012573 0.2258802205324173
0.28587162494659424 0.25649017095565796 0.2386130541563034
0.3452557623386383 0.15919169783592224 -0.11994684487581253
0.2698550820350647 0.22534286975860596 0.17563048005104065
0.2551109790802002 0.24002596735954285 0.1861492246389389
0.24072831869125366 0.20562301576137543 0.06348373740911484
0.41203397512435913 0.21842393279075623 0.3109809458255768
0.4819479286670685 0.18867583572864532 0.34120866656303406
0.4948088526725769 0.17012959718704224 0.33253756165504456
0.40075191855430603 0.2345186024904251 0.315072625875473
0.3815932869911194 0.23803067207336426 0.30234968662261963
0.3921511471271515 0.2521677017211914 0.31334438920021057