TITLE="3D TRIANGULAR SURFACE DATA"
VARIABLES="X","Y","Z"
ZONE T="unstruc" N=1757 E=3355 F=FEPOINT ET=TRIANGLE
0.4557543098926544 0.25321030616760254 0.09170442074537277
0.4838277995586395 0.27838119864463806 0.09196916222572327
0.47598615288734436 0.26632532477378845 0.07240128517150879
0.45490092039108276 0.2723250687122345 0.12269194424152374
0.4775564670562744 0.27371031045913696 0.11170615255832672
0.49479031562805176 0.27558666467666626 0.10292807966470718
0.4942943751811981 0.27141690254211426 0.08230206370353699
0.47222158312797546 0.26490968465805054 0.04746716096997261
0.4521894156932831 0.2604372501373291 0.0605284720659256
0.45361462235450745 0.268389493227005 0.03646177053451538
0.47561129927635193 0.2818000912666321 0.13606667518615723
0.4933461546897888 0.27383339405059814 0.12674692273139954
0.4206230044364929 0.28682443499565125 0.09083965420722961
0.4192748963832855 0.2829526960849762 0.06458134949207306
0.4011954665184021 0.2914832532405853 0.07722684741020203
0.4350813627243042 0.2744622230529785 0.10562951117753983
0.42140260338783264 0.2932911813259125 0.11661651730537415
0.4400436580181122 0.2914201617240906 0.13105817139148712
0.43371957540512085 0.2688863277435303 0.0766005590558052
0.43657559156417847 0.2751007080078125 0.05087193846702576
0.510252058506012 0.26091623306274414 0.09308528900146484
0.5094459056854248 0.25669997930526733 0.0685480386018753
0.5111284852027893 0.26623615622520447 0.1173483207821846
0.4907761812210083 0.2609158456325531 0.057964883744716644
0.5075321793556213 0.2531472146511078 0.04363173618912697
0.43574991822242737 0.2739892601966858 0.023906128481030464
0.4710833728313446 0.26301464438438416 0.02128571830689907
0.4530032277107239 0.2682478129863739 0.009188794530928135
0.42224013805389404 0.30181875824928284 0.14255034923553467
0.4410555362701416 0.300597608089447 0.15681670606136322
0.7947872281074524 0.22384019196033478 -0.31532981991767883
0.7764702439308167 0.22358913719654083 -0.30092352628707886
0.7903458476066589 0.20613963901996613 -0.29012900590896606
0.772446870803833 0.20697227120399475 -0.2753860354423523
0.7864958047866821 0.19004574418067932 -0.2642242908477783
0.841588020324707 0.27547645568847656 -0.35596853494644165
0.8283488154411316 0.2380213588476181 -0.3430572748184204
0.8369465470314026 0.2551976144313812 -0.33173438906669617
0.5115059614181519 0.2718331515789032 0.1413911134004593
0.83270263671875 0.23687177896499634 -0.3067237138748169
0.847571849822998 0.24435491859912872 -0.32004228234291077
0.5242904424667358 0.2457982897758484 0.030577251687645912
0.5067001581192017 0.25141945481300354 0.018418902531266212
0.4581332802772522 0.29043087363243103 0.14581051468849182
0.4597238600254059 0.30039048194885254 0.17150874435901642
0.4766737222671509 0.2902023196220398 0.16097761690616608
0.43469512462615967 0.2744683027267456 -0.0038514919579029083
0.4707147777080536 0.26306551694869995 -0.005663714371621609
0.4525159001350403 0.2689914107322693 -0.017962228506803513
0.7970210313796997 0.1604469269514084 -0.22618632018566132
0.8116158843040466 0.1704546958208084 -0.24083250761032104
0.800388753414154 0.17420125007629395 -0.25292274355888367
0.5280848741531372 0.2564363479614258 0.10567998141050339
0.17927712202072144 0.3798353970050812 0.14985068142414093
0.16425955295562744 0.4128612279891968 0.1600075662136078
0.18373015522956848 0.41369614005088806 0.1722652167081833
0.8392953872680664 0.20937083661556244 -0.2689507007598877
0.8418796062469482 0.19183248281478882 -0.28179433941841125
0.8431674242019653 0.22592408955097198 -0.29477572441101074
0.8041250705718994 0.18906047940254211 -0.27903786301612854
0.815302848815918 0.18527579307556152 -0.2673035264015198
0.4342324733734131 0.27550628781318665 -0.030275560915470123
0.4179709553718567 0.28115561604499817 0.03775846213102341
0.4167119264602661 0.2806422710418701 0.010082225315272808
0.8336200714111328 0.2595214545726776 -0.36704349517822266
0.7688791751861572 0.1919451802968979 -0.2493792027235031
0.7829058766365051 0.17572404444217682 -0.23799985647201538
0.3998768627643585 0.2884281873703003 0.05064298212528229
0.38049444556236267 0.2931758761405945 0.03735066205263138
0.3811691999435425 0.2959568500518799 0.06350353360176086
0.5271574854850769 0.25152239203453064 0.08102018386125565
0.5256208777427673 0.24798712134361267 0.055742911994457245
0.541292667388916 0.2392248511314392 0.017237596213817596
0.5237470865249634 0.24525617063045502 0.004693406634032726
0.819168210029602 0.2012174278497696 -0.2931474447250366
0.8234968185424805 0.21879792213439941 -0.3184733986854553
0.7582792639732361 0.22395114600658417 -0.28636446595191956
0.4028260409832001 0.30389314889907837 0.1290951669216156
0.38453131914138794 0.31397485733032227 0.14108437299728394
0.4037857949733734 0.3125742971897125 0.15486139059066772
0.8287197947502136 0.2198006808757782 -0.2810676395893097
0.7808822393417358 0.24165041744709015 -0.32585498690605164
0.762361466884613 0.24105770885944366 -0.3113729953765869
0.47840696573257446 0.3000793159008026 0.18627890944480896
0.49554088711738586 0.28918638825416565 0.1758444756269455
0.46115511655807495 0.3109896779060364 0.19673535227775574
0.4703630805015564 0.26423710584640503 -0.031930677592754364
0.8130722045898438 0.22453272342681885 -0.3296186923980713
0.8180766701698303 0.24489974975585938 -0.35383129119873047
0.7994499206542969 0.2428494393825531 -0.34005364775657654
0.7440716028213501 0.24143573641777039 -0.29698026180267334
0.5447813868522644 0.25279369950294495 0.11877354979515076
0.5287191271781921 0.2624523639678955 0.1304439753293991
0.4022304117679596 0.2967000901699066 0.10355277359485626
0.38211140036582947 0.3003709018230438 0.08976534008979797
0.17065727710723877 0.44984325766563416 0.1769322156906128
0.8505110740661621 0.22674979269504547 -0.3320203721523285
0.8521338701248169 0.26383429765701294 -0.3444737195968628
0.766884446144104 0.26003044843673706 -0.33595332503318787
0.7482452988624573 0.25930118560791016 -0.3218058943748474
0.41628193855285645 0.28080663084983826 -0.0163288414478302
0.5294022560119629 0.26975443959236145 0.1547480821609497
0.4229130148887634 0.3116854131221771 0.16881608963012695
0.44210779666900635 0.3112069070339203 0.18266257643699646
0.18771986663341522 0.38142669200897217 0.15804685652256012
0.16862082481384277 0.3819967210292816 0.14587801694869995
0.8236037492752075 0.2666609287261963 -0.37750357389450073
0.3615548014640808 0.2976532578468323 0.024373957887291908
0.362101286649704 0.2997814416885376 0.05046863108873367
0.5436575412750244 0.24726201593875885 0.09378853440284729
0.5426916480064392 0.2431735396385193 0.06852750480175018
0.3861689269542694 0.32316336035728455 0.16627691686153412
0.3683912456035614 0.3333772122859955 0.17737118899822235
0.38778385519981384 0.3332349956035614 0.19073127210140228
0.7296971082687378 0.25916746258735657 -0.30743828415870667
0.398567259311676 0.2867734730243683 0.023886261507868767
0.39804399013519287 0.28631076216697693 -0.002591406460851431
0.5418623089790344 0.24049189686775208 0.04301109537482262
0.804593026638031 0.2636176645755768 -0.36404603719711304
0.7857226133346558 0.2615608870983124 -0.3500930666923523
0.38324424624443054 0.3064686357975006 0.11573782563209534
0.363986611366272 0.3088188171386719 0.10221382975578308
0.5749570727348328 0.22464992105960846 -0.010006881318986416
0.5580493807792664 0.23282259702682495 -0.022662453353405
0.5582025647163391 0.23203088343143463 0.0036871538031846285
0.8102035522460938 0.28617990016937256 -0.3873089551925659
0.54752516746521 0.2682821750640869 0.16839271783828735
0.5460646152496338 0.2598598599433899 0.14374583959579468
0.3629518747329712 0.3033893406391144 0.07634120434522629
0.40713682770729065 0.33352428674697876 0.20401285588741302
0.4264744818210602 0.3335804045200348 0.21759569644927979
0.4245049059391022 0.3219081461429596 0.19339507818222046
0.1497318297624588 0.3833077549934387 0.13402338325977325
0.14218170940876007 0.38236722350120544 0.12544669210910797
0.1606052815914154 0.3807492256164551 0.13754518330097198
0.7525879144668579 0.2781383693218231 -0.3460260033607483
0.7337374687194824 0.2766014039516449 -0.33171239495277405
0.36677902936935425 0.32393279671669006 0.1527622491121292
0.44567450881004333 0.3337114155292511 0.23109252750873566
0.4649571478366852 0.33428752422332764 0.24438223242759705
0.46276596188545227 0.3222084939479828 0.22077931463718414
0.5409033298492432 0.23918485641479492 -0.008885177783668041
0.18190822005271912 0.3776143193244934 0.1436404436826706
0.16305695474147797 0.3786802887916565 0.1315472424030304
0.714963436126709 0.27542391419410706 -0.31750786304473877
0.4053648114204407 0.3223607540130615 0.17978698015213013
0.5655338764190674 0.2666607201099396 0.18200407922267914
0.5638529062271118 0.2575187385082245 0.15712426602840424
0.44363638758659363 0.321847140789032 0.20720313489437103
0.47041818499565125 0.2668428421020508 -0.057957518845796585
0.4882577359676361 0.2598744034767151 -0.045896586030721664
0.488685667514801 0.2632322311401367 -0.07202354818582535
0.6086223721504211 0.2100217640399933 -0.037538908421993256
0.5923169255256653 0.21960198879241943 -0.05032077059149742
0.5918831825256348 0.21729761362075806 -0.0237441323697567
0.8580614924430847 0.346622109413147 -0.42448779940605164
0.8453803658485413 0.30722278356552124 -0.41284114122390747
0.8522974252700806 0.3215062618255615 -0.40240904688835144
0.7377341389656067 0.2941141426563263 -0.3555392622947693
0.7188353538513184 0.29229113459587097 -0.3413776159286499
0.47988733649253845 0.3109704554080963 0.2106584906578064
0.4818725883960724 0.32272857427597046 0.2343730479478836
0.49887725710868835 0.3111252188682556 0.22421438992023468
0.3798513114452362 0.29178857803344727 0.011061929166316986
0.3612357974052429 0.29687318205833435 -0.0018810497131198645
0.48843491077423096 0.25791990756988525 -0.019707033410668373
0.506225049495697 0.25143682956695557 -0.007551804184913635
0.506010115146637 0.25281697511672974 -0.033641938120126724
0.19039614498615265 0.4525318443775177 0.1890905499458313
0.7908584475517273 0.28281083703041077 -0.37386101484298706
0.771678626537323 0.2803695797920227 -0.3599643111228943
0.37964165210723877 0.2919950783252716 -0.015294292010366917
0.3797409236431122 0.29356688261032104 -0.041304852813482285
0.36117738485336304 0.29762527346611023 -0.02787085436284542
0.5624305605888367 0.24993081390857697 0.1321118026971817
0.34321287274360657 0.30372458696365356 0.03729068487882614
0.3439869284629822 0.3068161904811859 0.06316018849611282
0.43448352813720703 0.2782384753227234 -0.05641091614961624
0.4161730408668518 0.2827621102333069 -0.04243224114179611
0.45234033465385437 0.2707977592945099 -0.044143207371234894
0.5235510468482971 0.2458730787038803 -0.02134828083217144
0.5409409403800964 0.24053269624710083 -0.03520418331027031
0.8468385338783264 0.2975761592388153 -0.37965551018714905
0.8626454472541809 0.3089753985404968 -0.3913230299949646
0.699862003326416 0.2908852994441986 -0.32740068435668945
0.5774363279342651 0.23408038914203644 0.09473904967308044
0.5764932036399841 0.22938063740730286 0.06873533874750137
0.5602625012397766 0.23898138105869293 0.08153263479471207
0.49703720211982727 0.29977184534072876 0.20025987923145294
0.55930095911026 0.23532918095588684 0.05572737753391266
0.561251163482666 0.2438124120235443 0.10698702186346054
0.34507784247398376 0.3116700351238251 0.08894667774438858
0.34607377648353577 0.31751158833503723 0.11435350775718689
0.39794906973838806 0.287354439496994 -0.028755521401762962
0.3270130157470703 0.31950700283050537 0.1012054830789566
0.3078135550022125 0.3217921555042267 0.0880361869931221
0.30901575088500977 0.3278397023677826 0.11314501613378525
0.14406780898571014 0.38060110807418823 0.11983352154493332
0.13084204494953156 0.3854430615901947 0.12205744534730911
0.7228987216949463 0.3107737898826599 -0.3648822009563446
0.7038378119468689 0.3087863624095917 -0.3509927988052368
0.4350034296512604 0.2823399007320404 -0.08233506977558136
0.4526278078556061 0.2739545702934265 -0.07024256885051727
0.5802820920944214 0.2472987323999405 0.14557789266109467
0.5586047172546387 0.23289938271045685 0.029812706634402275
0.36544322967529297 0.31580886244773865 0.12765179574489594
0.34750717878341675 0.32493263483047485 0.1392877697944641
0.32970118522644043 0.33430561423301697 0.1507381647825241
0.3282164931297302 0.32626450061798096 0.12606889009475708
0.31048908829689026 0.33544525504112244 0.13768914341926575
0.18047714233398438 0.3696582317352295 0.12098003178834915
0.16128140687942505 0.371690571308136 0.10922682285308838
0.7957473993301392 0.3027588129043579 -0.39687177538871765
0.4673627018928528 0.34822753071784973 0.26749229431152344
0.48418495059013367 0.33539247512817383 0.25771185755729675
0.5755825638771057 0.22623403370380402 0.04268945753574371
0.5751264095306396 0.22463278472423553 0.016477718949317932
0.5788657665252686 0.24040940403938293 0.12022199481725693
0.5981650948524475 0.24453960359096527 0.15934348106384277
0.581808865070343 0.2553914189338684 0.17086538672447205
0.41665470600128174 0.28601768612861633 -0.06856542080640793
0.4173189699649811 0.2906081974506378 -0.09430574625730515
0.4532968997955322 0.2788683772087097 -0.09611687809228897
0.43584826588630676 0.2878340184688568 -0.1079842746257782
0.8509097695350647 0.32999542355537415 -0.4345129132270813
0.6848077774047852 0.30706140398979187 -0.33702290058135986
0.3260042071342468 0.31430405378341675 0.07574503123760223
0.39823320508003235 0.28963443636894226 -0.054873738437891006
0.48666849732398987 0.34948137402534485 0.28080421686172485
0.503498375415802 0.3366979658603668 0.2711162567138672
0.3246873915195465 0.30812332034111023 0.024440158158540726
0.30598562955856323 0.3127543032169342 0.011717598885297775
0.30629441142082214 0.3143269717693329 0.037262387573719025
0.5420095324516296 0.24726399779319763 -0.08772486448287964
0.5240764021873474 0.25129926204681396 -0.07373473048210144
0.5413635969161987 0.24317064881324768 -0.061484117060899734
0.5590327382087708 0.23875311017036438 -0.07546129077672958
0.5583529472351074 0.23513928055763245 -0.04906942695379257
0.8392738699913025 0.2825774848461151 -0.39035138487815857
0.7079753279685974 0.3275655210018158 -0.3741089701652527
0.6887933611869812 0.3248588442802429 -0.3602483570575714
0.34906718134880066 0.3338015079498291 0.1640872359275818
0.33158770203590393 0.3440802991390228 0.17500868439674377
0.3508342206478119 0.34389227628707886 0.1881175935268402
0.3429716229438782 0.3022153675556183 0.01150920893996954
0.32437705993652344 0.3075264096260071 -0.0012777616502717137
0.501078724861145 0.32337111234664917 0.24798516929149628
0.5201238393783569 0.3240795135498047 0.26140692830085754
0.370321124792099 0.34397274255752563 0.20137366652488708
0.35286784172058105 0.3555523455142975 0.21186897158622742
0.3070032596588135 0.31732213497161865 0.06277789920568466
0.3251020014286041 0.3103579580783844 0.050088923424482346
0.4710797369480133 0.2707712650299072 -0.08399299532175064
0.48936429619789124 0.26778286695480347 -0.09791580587625504
0.4718984067440033 0.27595359086990356 -0.10990137606859207
0.14240427315235138 0.374191552400589 0.09748463332653046
0.1252506822347641 0.3834202289581299 0.10820300877094269
0.7762192487716675 0.29910141229629517 -0.3833303153514862
0.7568415403366089 0.2963622510433197 -0.36965683102607727
0.6159663200378418 0.24143654108047485 0.1731608808040619
0.5999476313591003 0.25348883867263794 0.1846153736114502
0.3898391127586365 0.34444519877433777 0.21448296308517456
0.5937137007713318 0.2237379401922226 0.08202055096626282
0.5927059054374695 0.21976295113563538 0.05575615540146828
0.5696509480476379 0.28816041350364685 0.2308475375175476
0.567512571811676 0.27697861194610596 0.20653373003005981
0.5511357188224792 0.2883652150630951 0.21718057990074158
0.3120732307434082 0.3445410430431366 0.16203248500823975
0.17907755076885223 0.3627036213874817 0.09752064943313599
0.1601119190454483 0.3655685484409332 0.08582039177417755
0.7812342047691345 0.3200930655002594 -0.40609514713287354
0.4371243715286255 0.29463496804237366 -0.13323929905891418
0.4544137120246887 0.28520897030830383 -0.12166913598775864
0.5491587519645691 0.27777835726737976 0.19292078912258148
0.5324291586875916 0.28843042254447937 0.20350202918052673
0.409171998500824 0.3452436029911041 0.22784243524074554
0.5921271443367004 0.21737968921661377 0.02947518788278103
0.6020914316177368 0.2636965811252594 0.20947569608688354
0.583676278591156 0.26500895619392395 0.19572509825229645
0.431026816368103 0.3597865402698517 0.2639869749546051
0.4506699740886688 0.36147141456604004 0.2770635187625885
0.44818344712257385 0.34739264845848083 0.25437575578689575
0.41142794489860535 0.3580266237258911 0.25093430280685425
0.42873692512512207 0.3462425470352173 0.241127148270607
0.38013631105422974 0.2966603934764862 -0.06708680093288422
0.39881131052970886 0.2934933006763458 -0.08068472146987915
0.5060707926750183 0.25555649399757385 -0.05976235494017601
0.5235894918441772 0.2478581964969635 -0.04747742414474487
0.4903457462787628 0.2737198770046234 -0.12369034439325333
0.47295045852661133 0.28278765082359314 -0.13536618649959564
0.1415923833847046 0.3691238462924957 0.07444534450769424
0.12412521988153458 0.37790998816490173 0.08591458201408386
0.8553922772407532 0.24643540382385254 -0.35604408383369446
0.8571555614471436 0.2852852940559387 -0.3682875335216522
0.669601559638977 0.3227308988571167 -0.346266508102417
0.4184587001800537 0.29662877321243286 -0.1196468248963356
0.6139708757400513 0.232257679104805 0.14750432968139648
0.5964339971542358 0.2361210137605667 0.13382333517074585
0.5949193239212036 0.22926399111747742 0.10807336866855621
0.39196160435676575 0.35693681240081787 0.2379266768693924
0.3725782036781311 0.3561255633831024 0.2248051017522812
0.3427429795265198 0.302367240190506 -0.01435514073818922
0.34282374382019043 0.30404993891716003 -0.04016343504190445
0.3615681529045105 0.3001035153865814 -0.05354033783078194
0.5751453638076782 0.22602131962776184 -0.03653405234217644
0.5076733827590942 0.26509854197502136 -0.11180618405342102
0.5067516565322876 0.25959497690200806 -0.08589723706245422
0.5249519944190979 0.2562645971775055 -0.09972137212753296
0.17806515097618103 0.3570336103439331 0.07378009706735611
0.1594882607460022 0.3608056306838989 0.06204332038760185
0.866549015045166 0.29161393642425537 -0.40182939171791077
0.8687214255332947 0.33510392904281616 -0.4136931896209717
0.7615926861763 0.31646037101745605 -0.39263904094696045
0.7421190738677979 0.3134162127971649 -0.3789697289466858
0.6254016757011414 0.20284661650657654 -0.05161682516336441
0.6250126957893372 0.20073048770427704 -0.02471957355737686
0.641836941242218 0.19348978996276855 -0.0385892428457737
0.6108537316322327 0.21814407408237457 0.09550133347511292
0.609715461730957 0.21329505741596222 0.06918244063854218
0.5178159475326538 0.3113706111907959 0.2378939390182495
0.5918771028518677 0.21663516759872437 0.002900150138884783
0.4700862169265747 0.3631828725337982 0.2901826500892639
0.32446005940437317 0.3083782196044922 -0.026947902515530586
0.30595338344573975 0.31281086802482605 -0.013804363086819649
0.6928622722625732 0.3436104655265808 -0.38288527727127075
0.67329341173172 0.34055864810943604 -0.3691605031490326
0.2874624729156494 0.3183038532733917 -0.0262336153537035
0.2873837351799011 0.31740421056747437 -0.0007337551796808839
0.6089996099472046 0.21022647619247437 0.042660098522901535
0.6085086464881897 0.20853547751903534 0.016040077432990074
0.6123248338699341 0.2244909405708313 0.12163473665714264
0.6228024363517761 0.27472758293151855 0.2479122281074524
0.6386026740074158 0.2615945637226105 0.2373082935810089
0.6203851699829102 0.26247936487197876 0.223367378115654
0.08995827287435532 0.4143005907535553 0.09868336468935013
0.08323220163583755 0.4496763050556183 0.10608457028865814
0.0938611626625061 0.42633354663848877 0.10812616348266602
0.7665292024612427 0.3375197947025299 -0.4150265157222748
0.5930220484733582 0.22351646423339844 -0.07695234566926956
0.6092954277992249 0.21302630007266998 -0.06438885629177094
0.26896074414253235 0.32281672954559326 -0.013316630385816097
0.269004762172699 0.32269737124443054 0.011899963021278381
0.362165242433548 0.30402350425720215 -0.07915011048316956
0.34346163272857666 0.3072621822357178 -0.06571321189403534
0.3808617889881134 0.3011120557785034 -0.0927068293094635
0.6084088087081909 0.20843225717544556 -0.010870853438973427
0.14071696996688843 0.36556577682495117 0.05069760978221893
0.12324005365371704 0.37373512983322144 0.06287949532270432
0.8294421434402466 0.29048365354537964 -0.4005177319049835
0.8348917365074158 0.31236758828163147 -0.42279013991355896
0.8153238892555237 0.30725640058517456 -0.4101365804672241
0.6539862751960754 0.33739176392555237 -0.3554234206676483
0.31411275267601013 0.3551808297634125 0.1857926845550537
0.29669687151908875 0.3665306866168976 0.19631275534629822
0.3163064122200012 0.3668990731239319 0.20905624330043793
0.3248848617076874 0.31068962812423706 -0.05242840573191643
0.3995984196662903 0.29884588718414307 -0.10622606426477432
0.6336424350738525 0.23856815695762634 0.18700970709323883
0.6181298494338989 0.25167033076286316 0.1984534114599228
0.6070554256439209 0.2883681058883667 0.25838273763656616
0.6044411659240723 0.27528053522109985 0.2341224104166031
0.10746634006500244 0.3844718337059021 0.08510413765907288
0.08740872144699097 0.4093599021434784 0.07985483855009079
0.7469689249992371 0.3337397873401642 -0.4015766978263855
0.7274364233016968 0.3305620551109314 -0.3877984285354614
0.5765748620033264 0.23382306098937988 -0.08937332779169083
0.5756428241729736 0.22905825078487396 -0.06302466243505478
0.48963284492492676 0.3651881217956543 0.3032641112804413
0.506112813949585 0.3511468470096588 0.2939625084400177
0.47300371527671814 0.37855109572410583 0.3120805323123932
0.290010929107666 0.329855352640152 0.10004245489835739
0.2875514328479767 0.3181253671646118 0.02455797605216503
0.6315160393714905 0.22843827307224274 0.1613319367170334
0.17735838890075684 0.3529100716114044 0.049503766000270844
0.1585911512374878 0.3578267991542816 0.03812782093882561
0.8408702611923218 0.336202472448349 -0.4441891610622406
0.6770725250244141 0.35809725522994995 -0.3914705812931061
0.6576279997825623 0.35451969504356384 -0.37796923518180847
0.5532804727554321 0.2997864782810211 0.24131950736045837
0.5556761026382446 0.3125145435333252 0.26486119627952576
0.5721143484115601 0.3004928231239319 0.2548905313014984
0.3943973183631897 0.3706977367401123 0.2604350447654724
0.2927677631378174 0.34537139534950256 0.14900192618370056
0.2881302237510681 0.3205135464668274 0.04994959011673927
0.288800448179245 0.32442763447761536 0.07497576624155045
0.626761257648468 0.2071937918663025 0.08280298858880997
0.6258218288421631 0.20318244397640228 0.05605034902691841
0.5419461131095886 0.3395552337169647 0.29773202538490295
0.5582454800605774 0.3265916109085083 0.2881407141685486
0.5392332077026367 0.3252418637275696 0.27463775873184204
0.2619573175907135 0.41885876655578613 0.22205504775047302
0.24996978044509888 0.46127474308013916 0.22592473030090332
0.2697760760784149 0.46429845690727234 0.23830555379390717
0.0917104035615921 0.4521349370479584 0.11908134818077087
0.09983856230974197 0.41659510135650635 0.11551792919635773
0.7518548965454102 0.35476240515708923 -0.42364293336868286
0.5598599314689636 0.2435915172100067 -0.10169285535812378
0.29897385835647583 0.37812116742134094 0.21859361231327057
0.3187682330608368 0.3792135715484619 0.23112618923187256
0.5226960182189941 0.338019996881485 0.28445351123809814
0.41402310132980347 0.37204962968826294 0.273467093706131
0.3334803283214569 0.35515591502189636 0.1987282931804657
0.33561456203460693 0.3676624298095703 0.22180479764938354
0.29124924540519714 0.33680644631385803 0.1247549057006836
0.6252015233039856 0.20078615844249725 0.029355674982070923
0.49276021122932434 0.3811832070350647 0.32489556074142456
0.5091898441314697 0.3671822249889374 0.3161429166793823
0.5745773315429688 0.31348535418510437 0.2784299850463867
0.6411941051483154 0.27439337968826294 0.26189765334129333
0.14015135169029236 0.36325711011886597 0.02655245177447796
0.1224767416715622 0.3710557818412781 0.039110179990530014
0.875065267086029 0.36294975876808167 -0.43530136346817017
0.8797037601470947 0.34569233655929565 -0.4445353150367737
0.8812431693077087 0.39041411876678467 -0.45606735348701477
0.7320024967193604 0.3505973219871521 -0.4102667570114136
0.7123962044715881 0.3468674421310425 -0.39668506383895874
0.542850911617279 0.2527421712875366 -0.11375001072883606
0.43853914737701416 0.30256929993629456 -0.15835973620414734
0.41965508460998535 0.3037736117839813 -0.1447649747133255
0.39748579263687134 0.38543808460235596 0.2821481227874756
0.4171181619167328 0.3874083459377289 0.2949981987476349
0.33834314346313477 0.3805171251296997 0.24385333061218262
0.355214387178421 0.36845073103904724 0.23476530611515045
0.37485942244529724 0.36961421370506287 0.2476774901151657
0.6250445246696472 0.19991634786128998 0.0023808032274246216
0.6280176639556885 0.2126280814409256 0.10920976102352142
0.629613995552063 0.21982373297214508 0.1354721337556839
0.5909277200698853 0.3013395667076111 0.26849430799484253
0.5882598757743835 0.2883661687374115 0.24467501044273376
0.3441319763660431 0.38787931203842163 0.25855782628059387
0.33456045389175415 0.38523179292678833 0.25133275985717773
0.3542746603488922 0.38713449239730835 0.26391106843948364
0.3637969195842743 0.3898409605026245 0.2714008092880249
0.3739336431026459 0.38945403695106506 0.2767680585384369
0.2815721929073334 0.42047548294067383 0.23456445336341858
0.2897022068500519 0.4672350585460663 0.25067970156669617
0.10832828283309937 0.38700735569000244 0.09678493440151215
0.0996752381324768 0.38709044456481934 0.08375172317028046
0.10505428910255432 0.38865384459495544 0.09896436333656311
0.8874717354774475 0.4185541868209839 -0.4761352241039276
0.869021475315094 0.395612508058548 -0.46674272418022156
0.7365747690200806 0.3710576891899109 -0.4320090413093567
0.4959249198436737 0.3970627784729004 0.345913290977478
0.5020567774772644 0.4079885184764862 0.3602941036224365
0.5156548619270325 0.4002472162246704 0.35878631472587585
0.3776912987232208 0.3838256895542145 0.2693561911582947
0.38346925377845764 0.392109215259552 0.28408554196357727
0.2709846496582031 0.33218681812286377 0.08710791170597076
0.2722175121307373 0.3386567533016205 0.11176156252622604
0.2692558467388153 0.32425180077552795 0.03721104562282562
0.43371453881263733 0.37385040521621704 0.2863481640815735
0.47626885771751404 0.3942103683948517 0.3332735598087311
0.48230376839637756 0.4049224257469177 0.3475562632083893
0.3151751160621643 0.3835172951221466 0.23843343555927277
0.30119648575782776 0.42220786213874817 0.2470213621854782
0.3208262026309967 0.424221396446228 0.2595881521701813
0.34066686034202576 0.4264853000640869 0.27229878306388855
0.17666511237621307 0.350473016500473 0.02531120367348194
0.1584930717945099 0.35625243186950684 0.014044842682778835
0.10927165299654007 0.3952391743659973 0.09649196267127991
0.8209768533706665 0.32979872822761536 -0.4320882260799408
0.8010168671607971 0.3245403468608856 -0.4192627966403961
0.6380322575569153 0.3512779474258423 -0.36438480019569397
0.5260072350502014 0.2623527944087982 -0.1257144957780838
0.25041475892066956 0.3279803395271301 -0.0004119951627217233
0.23199407756328583 0.3336321711540222 -0.012664111331105232
0.23204046487808228 0.333696186542511 0.012369750067591667
0.3062657117843628 0.31450095772743225 -0.03928185999393463
0.2878876030445099 0.3207177221775055 -0.051369816064834595
0.4007326662540436 0.30529099702835083 -0.1312459409236908
0.27367356419563293 0.34662649035453796 0.13608884811401367
0.45331016182899475 0.375864177942276 0.2991696894168854
0.45643869042396545 0.39158234000205994 0.3204192519187927
0.3581521213054657 0.382056325674057 0.25661414861679077
0.5860005021095276 0.27621617913246155 0.2203119993209839
0.46264663338661194 0.4022672176361084 0.33483394980430603
0.4427851438522339 0.39963462948799133 0.3221401870250702
0.45270174741744995 0.4009287357330322 0.3281353712081909
0.2955668866634369 0.3819130063056946 0.22553537786006927
0.1402282416820526 0.36263418197631836 0.002644565887749195
0.12231516093015671 0.36957642436027527 0.015180356800556183
0.10370110720396042 0.3817487061023712 0.06992094218730927
0.7167556881904602 0.3664162755012512 -0.41867634654045105
0.6969020962715149 0.3619459569454193 -0.40509888529777527
0.6752287745475769 0.26025405526161194 0.2655334174633026
0.6568880677223206 0.2608483135700226 0.2513796091079712
0.6597422361373901 0.2741597294807434 0.27596408128738403
0.4402964115142822 0.3119070827960968 -0.1829124540090561
0.4574302136898041 0.3016209900379181 -0.17191950976848602
0.2505318224430084 0.32877323031425476 -0.02547682635486126
0.2851380705833435 0.38354256749153137 0.22065235674381256
0.30482837557792664 0.38480421900749207 0.23331378400325775
0.3818415105342865 0.3071708679199219 -0.11793302744626999
0.29465967416763306 0.35548314452171326 0.17303693294525146
0.2770397365093231 0.36614930629730225 0.1835181713104248
0.2699485421180725 0.3275081515312195 0.06229674816131592
0.4366984963417053 0.38940832018852234 0.3075796961784363
0.5123047828674316 0.38390660285949707 0.3378102481365204
0.5286170840263367 0.3692285120487213 0.3292883634567261
0.423263281583786 0.397307425737381 0.30943480134010315
0.40349188446998596 0.3946346640586853 0.2967761158943176
0.41323521733283997 0.39461687207221985 0.30231720209121704
0.43283823132514954 0.39768844842910767 0.31523361802101135
0.32942184805870056 0.47314760088920593 0.27537620067596436
0.34933987259864807 0.47613653540611267 0.28779876232147217
0.3096361756324768 0.470199853181839 0.26296594738960266
0.1766330748796463 0.3497192859649658 0.0009665302350185812