TITLE="3D TRIANGULAR SURFACE DATA"
VARIABLES="X","Y","Z"
ZONE T="unstruc" N=1757 E=3355 F=FEPOINT ET=TRIANGLE
0.4391590654850006 0.19598698616027832 0.09269053488969803
0.4621524214744568 0.20309382677078247 0.09297249466180801
0.45504894852638245 0.1936265379190445 0.07312005013227463
0.43842363357543945 0.2100299447774887 0.12248656898736954
0.45740628242492676 0.20159001648426056 0.11279387772083282
0.4731466472148895 0.1924978494644165 0.10462762415409088
0.4719330370426178 0.18814408779144287 0.08229093998670578
0.4515332579612732 0.19090227782726288 0.04769827425479889
0.4353579580783844 0.1980772465467453 0.06253395974636078
0.43417468667030334 0.1990482658147812 0.03634421154856682
0.4567270576953888 0.2089647650718689 0.1375104933977127
0.47270530462265015 0.19662418961524963 0.1278373748064041
0.40352800488471985 0.22432811558246613 0.09164203703403473
0.40187159180641174 0.2201283574104309 0.06491891294717789
0.3853970766067505 0.23322069644927979 0.07785633951425552
0.4199191927909851 0.21477152407169342 0.10616825520992279
0.405009925365448 0.231331467628479 0.1179150938987732
0.4229569733142853 0.22592632472515106 0.13261865079402924
0.41840502619743347 0.20916114747524261 0.07795083522796631
0.4181237816810608 0.2089872807264328 0.050866104662418365
0.4871922731399536 0.1793462634086609 0.09394500404596329
0.4858635365962982 0.1748848408460617 0.06935831904411316
0.4886121153831482 0.184833362698555 0.11824338138103485
0.46868404746055603 0.18263716995716095 0.058617521077394485
0.48404040932655334 0.17190136015415192 0.04422637075185776
0.4172249734401703 0.2083158940076828 0.02374725230038166
0.4503934979438782 0.19023120403289795 0.021295174956321716
0.4335012137889862 0.19937700033187866 0.009062053635716438
0.4068601727485657 0.2410782426595688 0.14405755698680878
0.42495986819267273 0.23611901700496674 0.15847228467464447
0.757494330406189 0.08265077322721481 -0.317429780960083
0.7397003769874573 0.08559369295835495 -0.3028465807437897
0.7528255581855774 0.06873485445976257 -0.29198020696640015
0.7352829575538635 0.07206515967845917 -0.27714648842811584
0.7485673427581787 0.05564531311392784 -0.26591524481773376
0.8027889728546143 0.0930333212018013 -0.35881298780441284
0.7907872796058655 0.08366057276725769 -0.3456667363643646
0.7972508072853088 0.07621023058891296 -0.33428460359573364
0.48995441198349 0.19184419512748718 0.14252211153507233
0.7921497225761414 0.060757897794246674 -0.30903974175453186
0.8117349147796631 0.09212437272071838 -0.32257241010665894
0.49927058815956116 0.16028542816638947 0.030896371230483055
0.48310282826423645 0.1704227328300476 0.018643667921423912
0.44051820039749146 0.2215484231710434 0.1474689096212387
0.4429872930049896 0.23237569630146027 0.17314434051513672
0.45854154229164124 0.2184777557849884 0.16256923973560333
0.41629642248153687 0.20892877876758575 -0.003915960434824228
0.4499538540840149 0.19045433402061462 -0.00572701171040535
0.4330886900424957 0.20030908286571503 -0.018126579001545906
0.7579568028450012 0.02857852727174759 -0.2275352030992508
0.772352397441864 0.028588606044650078 -0.24239124357700348
0.7615871429443359 0.03968844190239906 -0.25445860624313354
0.503831148147583 0.1712912768125534 0.10665541142225266
0.17028138041496277 0.352710485458374 0.15886040031909943
0.1551443487405777 0.3811258375644684 0.1648767739534378
0.17439262568950653 0.379572331905365 0.17721118032932281
0.8025564551353455 0.06287995725870132 -0.27096864581108093
0.8037348389625549 0.05091725289821625 -0.28376102447509766
0.8068770170211792 0.07673493027687073 -0.2970793843269348
0.7657414674758911 0.0521606020629406 -0.2808281481266022
0.7762496471405029 0.04039721563458443 -0.2691027820110321
0.4160331189632416 0.2101130485534668 -0.03057229146361351
0.400570809841156 0.21863694489002228 0.0378282405436039
0.39942073822021484 0.21825014054775238 0.01016145758330822
0.7965187430381775 0.10051647573709488 -0.36989668011665344
0.7313613295555115 0.05989115685224533 -0.2509499192237854
0.7447041273117065 0.04388856887817383 -0.23940886557102203
0.38383644819259644 0.22983327507972717 0.051051605492830276
0.3657286763191223 0.23861686885356903 0.03766036406159401
0.366739958524704 0.2417420893907547 0.06411638855934143
0.5023347735404968 0.16604740917682648 0.08179564028978348
0.5006285309791565 0.16239199042320251 0.05636797100305557
0.514689564704895 0.1491837352514267 0.01736399717628956
0.49865254759788513 0.15967434644699097 0.004778622649610043
0.7805917263031006 0.05351901054382324 -0.2952285408973694
0.7854673266410828 0.0680614784359932 -0.32079142332077026
0.7219995260238647 0.08894941210746765 -0.2881568670272827
0.38841941952705383 0.24693240225315094 0.13033689558506012
0.3717433512210846 0.2611640989780426 0.14232678711414337
0.390281081199646 0.2563954293727875 0.1562088429927826
0.7876002192497253 0.04693619906902313 -0.2831615209579468
0.7446224093437195 0.10047300159931183 -0.327968955039978
0.7267574071884155 0.1036723330616951 -0.313419371843338
0.4610888957977295 0.22883252799510956 0.18784959614276886
0.4767092764377594 0.2147163599729538 0.17735633254051208
0.4454708397388458 0.24372251331806183 0.19833268225193024
0.4497942328453064 0.19184055924415588 -0.03224972262978554
0.7753296494483948 0.08050010353326797 -0.33186623454093933
0.7807760834693909 0.09654189646244049 -0.3563911020755768
0.7626944184303284 0.09818827360868454 -0.34233659505844116
0.709013819694519 0.10720091313123703 -0.2988768517971039
0.5197451710700989 0.163995623588562 0.11984603852033615
0.5053128004074097 0.17806389927864075 0.13155634701251984
0.386963814496994 0.2389916181564331 0.10446279495954514
0.3681270480155945 0.2466234266757965 0.0905861109495163
0.16225023567676544 0.40233302116394043 0.17806369066238403
0.8141061663627625 0.08263164013624191 -0.33459022641181946
0.8170983195304871 0.10915522277355194 -0.34733083844184875
0.7318238615989685 0.11912457644939423 -0.33817222714424133
0.7138990163803101 0.12240371853113174 -0.32384026050567627
0.399044930934906 0.21856246888637543 -0.01651725172996521
0.5069975256919861 0.18626847863197327 0.15608403086662292
0.4086962640285492 0.25186750292778015 0.17024919390678406
0.4271368682384491 0.24766770005226135 0.18423540890216827
0.18056678771972656 0.34739378094673157 0.16176408529281616
0.1615339070558548 0.3491498529911041 0.14949020743370056
0.7868317365646362 0.11400064826011658 -0.38030147552490234
0.3479430377483368 0.2470737099647522 0.02454933524131775
0.34871676564216614 0.24941205978393555 0.05088188126683235
0.518012285232544 0.1579846441745758 0.0946359857916832
0.5165706276893616 0.15352489054203033 0.06915678828954697
0.373993843793869 0.2703966498374939 0.167613223195076
0.35767021775245667 0.28460726141929626 0.1787356734275818
0.37650352716445923 0.2811320722103119 0.19219455122947693
0.6960959434509277 0.126088947057724 -0.30938485264778137
0.38251858949661255 0.22810211777687073 0.024071410298347473
0.38195961713790894 0.22761334478855133 -0.0026394654996693134
0.515431821346283 0.1506001204252243 0.04339975863695145
0.7683745622634888 0.11492026597261429 -0.3665675222873688
0.750015139579773 0.11667019128799438 -0.3524593412876129
0.3698088228702545 0.25320789217948914 0.11674193292856216
0.3513752818107605 0.2590230107307434 0.10309477895498276
0.5457316040992737 0.12715856730937958 -0.010095370933413506
0.5301779508590698 0.13894647359848022 -0.022876350209116936
0.5302302837371826 0.13819676637649536 0.0036930793430656195
0.7745150923728943 0.1326942890882492 -0.3901013731956482
0.5240551233291626 0.18046118319034576 0.16981014609336853
0.5217504501342773 0.17153428494930267 0.14495716989040375
0.3499005138874054 0.2533644139766693 0.07703316956758499
0.3952563405036926 0.27773234248161316 0.20562425255775452
0.4140426516532898 0.27446112036705017 0.21924008429050446
0.4112147092819214 0.2627353370189667 0.19498123228549957
0.1427537351846695 0.3514707088470459 0.13748608529567719
0.1331419199705124 0.3580094575881958 0.13434602320194244
0.15154193341732025 0.35507696866989136 0.14650432765483856
0.7192308306694031 0.13894088566303253 -0.34821778535842896
0.7012887001037598 0.14233453571796417 -0.33387404680252075
0.3552817404270172 0.2746046781539917 0.15399791300296783
0.43275848031044006 0.27142858505249023 0.23279012739658356
0.4514603614807129 0.26848313212394714 0.24618405103683472
0.4482162892818451 0.2557333707809448 0.2224956750869751
0.5143469572067261 0.14919082820415497 -0.008989357389509678
0.1756102442741394 0.3432706296443939 0.14474119246006012
0.15681083500385284 0.3455721139907837 0.13254477083683014
0.6835031509399414 0.14623478055000305 -0.3195757567882538
0.3926412761211395 0.26648563146591187 0.18125931918621063
0.5411219596862793 0.17468440532684326 0.1835113912820816
0.5385383367538452 0.16514280438423157 0.15847663581371307
0.4297347366809845 0.2590944170951843 0.20882153511047363
0.4501838982105255 0.19470195472240448 -0.05858743563294411
0.4664607346057892 0.1833883821964264 -0.046351056545972824
0.46723082661628723 0.18701638281345367 -0.07271938771009445
0.5766522884368896 0.10459043085575104 -0.03788530081510544
0.5617676973342896 0.11793673038482666 -0.05078188702464104
0.5611699223518372 0.11562641710042953 -0.02394869364798069
0.8219568729400635 0.1507207751274109 -0.4280233383178711
0.8095166087150574 0.13822734355926514 -0.4161717891693115
0.8151530027389526 0.13025201857089996 -0.40572696924209595
0.7069360613822937 0.16012780368328094 -0.3578641712665558
0.6890026926994324 0.16374193131923676 -0.34366241097450256
0.46360328793525696 0.24012231826782227 0.21229857206344604
0.4666650891304016 0.25248250365257263 0.23614779114723206
0.48190543055534363 0.23674875497817993 0.2259809523820877
0.3649861812591553 0.23713639378547668 0.011110706254839897
0.3475663959980011 0.2463129460811615 -0.0018889199709519744
0.46634212136268616 0.1812424212694168 -0.019897501915693283
0.4826531708240509 0.1705312579870224 -0.0075902752578258514
0.4826507270336151 0.17207719385623932 -0.03397272899746895
0.18176768720149994 0.40227794647216797 0.19025588035583496
0.7558594942092896 0.13403171300888062 -0.37638741731643677
0.7374302744865417 0.13621142506599426 -0.3623456060886383
0.3647841811180115 0.23736804723739624 -0.015441765077412128
0.3650679588317871 0.2391989678144455 -0.041696906089782715
0.34761902689933777 0.24724280834197998 -0.028111737221479416
0.5362827181816101 0.1569555252790451 0.1332591027021408
0.33078429102897644 0.2569565773010254 0.037629060447216034
0.3317409157752991 0.2600560784339905 0.06371564418077469
0.4164949953556061 0.21290388703346252 -0.0569608099758625
0.39914581179618835 0.22055484354496002 -0.042913492769002914
0.4331536293029785 0.20228475332260132 -0.044595781713724136
0.49854403734207153 0.16043415665626526 -0.021547015756368637
0.5145453214645386 0.15067708492279053 -0.03552169352769852
0.8087391257286072 0.11079000681638718 -0.38268229365348816
0.8289619088172913 0.1468908190727234 -0.39467620849609375
0.6711215972900391 0.16782806813716888 -0.32956254482269287
0.5489723086357117 0.13650985062122345 0.09548766165971756
0.5476123094558716 0.13190174102783203 0.06933345645666122
0.5328195691108704 0.14502817392349243 0.08220367878675461
0.4790646433830261 0.2251366525888443 0.20188087224960327
0.5315437912940979 0.14128613471984863 0.05622031167149544
0.5343815088272095 0.150271475315094 0.10787779837846756
0.3330724537372589 0.26476916670799255 0.0896826758980751
0.3346152603626251 0.2710379958152771 0.11529295891523361
0.3819522261619568 0.22874735295772552 -0.02908501587808132
0.3162052035331726 0.2763217091560364 0.10199905931949615
0.29771414399147034 0.28176945447921753 0.08874569833278656
0.29931533336639404 0.2879447042942047 0.11400917172431946
0.13804732263088226 0.34831926226615906 0.12069374322891235
0.12418952584266663 0.35440483689308167 0.12557360529899597
0.6948351860046387 0.1828114092350006 -0.36729249358177185
0.6767704486846924 0.18642279505729675 -0.3533109724521637
0.41739603877067566 0.21713005006313324 -0.08311045914888382
0.4337857961654663 0.20564530789852142 -0.07092469930648804
0.5529625415802002 0.1499548852443695 0.14682401716709137
0.5306815505027771 0.13898679614067078 0.030065353959798813
0.3532537817955017 0.2660868763923645 0.12873873114585876
0.33662959933280945 0.27895206212997437 0.14044998586177826
0.3200097382068634 0.291679710149765 0.15194576978683472
0.31795603036880493 0.28344202041625977 0.12711270153522491
0.30112984776496887 0.29499199986457825 0.13877668976783752
0.17380422353744507 0.33718618750572205 0.12187762558460236
0.15489092469215393 0.34014296531677246 0.10990047454833984
0.76226407289505 0.15290683507919312 -0.3996308147907257
0.45489737391471863 0.28236469626426697 0.2693854570388794
0.47010698914527893 0.26587074995040894 0.25959232449531555
0.5465093851089478 0.12877672910690308 0.04304790496826172
0.5459075570106506 0.1271827667951584 0.016584910452365875
0.5507898330688477 0.14253617823123932 0.12124734371900558
0.5697036981582642 0.14292116463184357 0.16062313318252563
0.5554601550102234 0.1588277816772461 0.17224527895450592
0.39991018176078796 0.22402498126029968 -0.06922412663698196
0.40106096863746643 0.22900818288326263 -0.09516973793506622
0.4348783791065216 0.21056127548217773 -0.0970095843076706
0.4187493920326233 0.22283567488193512 -0.10896206647157669
0.8166096806526184 0.15858404338359833 -0.4381251931190491
0.6587076187133789 0.19001545011997223 -0.33928048610687256
0.31476280093193054 0.2707449197769165 0.07637536525726318
0.38248804211616516 0.23138658702373505 -0.05540502443909645
0.47372037172317505 0.28016459941864014 0.2827157974243164
0.48877665400505066 0.26329538226127625 0.27304092049598694
0.3129778802394867 0.2643153965473175 0.024647483602166176
0.29516392946243286 0.27223512530326843 0.011816008947789669
0.29560524225234985 0.2738405168056488 0.037577204406261444
0.5164059996604919 0.1581508070230484 -0.08851509541273117
0.49975740909576416 0.1664617359638214 -0.07443787157535553
0.5152681469917297 0.15364545583724976 -0.06204858422279358
0.5316423177719116 0.14492788910865784 -0.07612115889787674
0.5306558609008789 0.14119958877563477 -0.04950781911611557
0.8027955889701843 0.1188962459564209 -0.3934270739555359
0.6825567483901978 0.205488920211792 -0.3765321373939514
0.6641539931297302 0.20781013369560242 -0.36261606216430664
0.3388776481151581 0.2882305979728699 0.16534340381622314
0.32230350375175476 0.30060794949531555 0.17634747922420502
0.34128594398498535 0.29812198877334595 0.18955156207084656
0.3303676247596741 0.25542181730270386 0.011568669229745865
0.3126428425312042 0.26365238428115845 -0.0012949217343702912
0.4851962924003601 0.24947546422481537 0.24979382753372192
0.503637433052063 0.24663372337818146 0.26330187916755676
0.3603971302509308 0.2956824004650116 0.20286762714385986
0.34391191601753235 0.3088502287864685 0.21337221562862396
0.2965207099914551 0.27702343463897705 0.0632791593670845
0.31360867619514465 0.2666686773300171 0.05053715407848358
0.4512243866920471 0.19899283349514008 -0.0848442018032074
0.4684393107891083 0.19203543663024902 -0.09886138141155243
0.452603280544281 0.20459696650505066 -0.11091353744268417
0.13628125190734863 0.3435001075267792 0.0980907753109932
0.11956325173377991 0.3515089154243469 0.10907257348299026
0.743580162525177 0.15465450286865234 -0.38590362668037415
0.7251154780387878 0.15710289776325226 -0.37202364206314087
0.5863116979598999 0.135358989238739 0.17449265718460083
0.5724808573722839 0.1525362730026245 0.18606561422348022
0.3794069290161133 0.2928735911846161 0.21611011028289795
0.5635005235671997 0.12201879918575287 0.08270114660263062
0.5622233152389526 0.11808744072914124 0.05624319240450859
0.5474430322647095 0.19754086434841156 0.23268702626228333
0.5441076159477234 0.18548725545406342 0.2082260698080063
0.5297639966011047 0.20190300047397614 0.21894414722919464
0.30323299765586853 0.30366405844688416 0.16324931383132935
0.17222058773040771 0.3316957652568817 0.09826470911502838
0.15349683165550232 0.33528631925582886 0.08636657893657684
0.7502002120018005 0.17474330961704254 -0.4088387191295624
0.42061832547187805 0.22997917234897614 -0.13442952930927277
0.436519980430603 0.21703752875328064 -0.12276369333267212
0.526728630065918 0.19070923328399658 0.19451037049293518
0.5119988322257996 0.20625337958335876 0.20518960058689117
0.3982906937599182 0.29025548696517944 0.22950637340545654
0.5614299774169922 0.11570995301008224 0.02968854457139969
0.5756877064704895 0.16347751021385193 0.21113252639770508
0.558347761631012 0.16907638311386108 0.19729892909526825
0.42065906524658203 0.30170938372612 0.265841543674469
0.4398002624511719 0.29982990026474 0.27897536754608154
0.436159610748291 0.28495362401008606 0.25616633892059326
0.40153273940086365 0.30356264114379883 0.2527138888835907
0.4172899127006531 0.28766393661499023 0.24285613000392914
0.3658064007759094 0.24267931282520294 -0.06770940124988556
0.38347408175468445 0.2356874942779541 -0.08142587542533875
0.48311641812324524 0.17512376606464386 -0.06037319079041481
0.49887362122535706 0.1626715213060379 -0.04796619713306427
0.47008419036865234 0.19853399693965912 -0.12482000142335892
0.45431122183799744 0.21158719062805176 -0.1365797221660614
0.13512611389160156 0.3393806219100952 0.07479982078075409
0.1181456670165062 0.34734049439430237 0.08655456453561783
0.8201843500137329 0.10131736844778061 -0.3589385151863098
0.8229238390922546 0.12768471240997314 -0.3713955283164978
0.645763099193573 0.21042679250240326 -0.34862881898880005
0.4027736783027649 0.23560598492622375 -0.1207302063703537
0.5835870504379272 0.12622791528701782 0.14867541193962097
0.5672677159309387 0.13452675938606262 0.13490672409534454
0.5651556849479675 0.12750473618507385 0.10894143581390381
0.38238027691841125 0.3052442669868469 0.239608496427536
0.363226979970932 0.3068321645259857 0.22643515467643738
0.3301860988140106 0.25557422637939453 -0.014532498084008694
0.3304385542869568 0.2573370039463043 -0.04054473340511322
0.34820786118507385 0.249935582280159 -0.054053567349910736
0.5460444688796997 0.12864504754543304 -0.036834608763456345
0.4856642782688141 0.18528611958026886 -0.11285154521465302
0.4842005670070648 0.17950692772865295 -0.08672420680522919
0.5011381506919861 0.1718091368675232 -0.10069265216588974
0.17102837562561035 0.32718220353126526 0.07429942488670349
0.15258191525936127 0.3315102756023407 0.062417007982730865
0.8340683579444885 0.14489638805389404 -0.4053609371185303
0.8354669809341431 0.16758841276168823 -0.4172091782093048
0.7314848899841309 0.17678169906139374 -0.39519405364990234
0.7130404114723206 0.17958946526050568 -0.3813733458518982
0.592313289642334 0.09414825588464737 -0.05202651396393776
0.591733455657959 0.09198932349681854 -0.024880627170205116
0.6073917746543884 0.08157454431056976 -0.03891153261065483
0.5794283747673035 0.11243399977684021 0.09627141058444977
0.5779913663864136 0.10782255977392197 0.06972870975732803
0.500174343585968 0.2334717959165573 0.2397037148475647
0.5610831379890442 0.11490289866924286 0.002908267779275775
0.458748459815979 0.2977684736251831 0.2921309769153595
0.31278640031814575 0.2645774781703949 -0.027188986539840698
0.29512614011764526 0.2723155915737152 -0.013932487927377224
0.6698246002197266 0.22669942677021027 -0.3853740096092224
0.6511074304580688 0.22870326042175293 -0.37159326672554016
0.2775686979293823 0.281072735786438 -0.026440950110554695
0.2774221897125244 0.28015637397766113 -0.0007866534870117903
0.5770019292831421 0.10474380105733871 0.04298963397741318
0.5764238238334656 0.1031443178653717 0.01612641103565693
0.5813252329826355 0.11859040707349777 0.12260511517524719
0.5966421961784363 0.17077569663524628 0.24979114532470703
0.6100429892539978 0.15201248228549957 0.2390611469745636
0.5929698944091797 0.15796871483325958 0.22507016360759735
0.07999380677938461 0.3884095847606659 0.10068953037261963
0.07735515385866165 0.4113091826438904 0.10675739496946335
0.08451145142316818 0.394400417804718 0.11127013713121414
0.738309383392334 0.19822055101394653 -0.41777631640434265
0.5627917051315308 0.12181808054447174 -0.07763082534074783
0.5775196552276611 0.10760195553302765 -0.06492317467927933
0.25961586833000183 0.2877919375896454 -0.013405133038759232
0.25965726375579834 0.2877011001110077 0.012021009810268879
0.34917333722114563 0.25417307019233704 -0.0798545703291893
0.33125337958335876 0.2605927884578705 -0.06631716340780258
0.3670049011707306 0.24769124388694763 -0.09350447356700897
0.5763189792633057 0.10308462381362915 -0.010931460186839104
0.1341063529253006 0.3363695740699768 0.050895944237709045
0.11700849235057831 0.3440420627593994 0.06329838186502457
0.7932289838790894 0.13239137828350067 -0.40352436900138855
0.8001439571380615 0.15197359025478363 -0.42601919174194336
0.7811490297317505 0.15202531218528748 -0.41307777166366577
0.6326141357421875 0.23087432980537415 -0.35782089829444885
0.30571794509887695 0.31342679262161255 0.18717451393604279
0.28898245096206665 0.3252035975456238 0.1977369338274002
0.30836281180381775 0.3236895203590393 0.2105836421251297
0.31338298320770264 0.26707491278648376 -0.0529060922563076
0.3848443031311035 0.24157269299030304 -0.10714138299226761
0.6028806567192078 0.12801575660705566 0.18843257427215576
0.5894697308540344 0.14607810974121094 0.19996704161167145
0.5829448103904724 0.1888394057750702 0.26031163334846497
0.5791739225387573 0.17559124529361725 0.2359175682067871
0.09337751567363739 0.36623796820640564 0.09022785723209381
0.07704797387123108 0.3849990963935852 0.08277230709791183
0.7196536660194397 0.20045538246631622 -0.4041733145713806
0.7011100053787231 0.2031460404396057 -0.39034584164619446
0.5480566620826721 0.1363248974084854 -0.09017962962388992
0.5468063950538635 0.131705641746521 -0.06356032192707062
0.47775349020957947 0.2958201467990875 0.30525705218315125
0.49258968234062195 0.27806442975997925 0.29594412446022034
0.46279168128967285 0.31372007727622986 0.31421446800231934
0.2806580066680908 0.2920593023300171 0.10084236413240433
0.277652382850647 0.28089508414268494 0.02475515566766262
0.600020706653595 0.11832372099161148 0.16258536279201508
0.17015905678272247 0.32386910915374756 0.04990709573030472
0.15166710317134857 0.3289960026741028 0.03825294226408005
0.807722270488739 0.173561230301857 -0.44769516587257385
0.6567144393920898 0.24764367938041687 -0.39398831129074097
0.6379092931747437 0.24883531033992767 -0.3804011642932892
0.5331315994262695 0.21425701677799225 0.24316686391830444
0.5367528796195984 0.22759926319122314 0.2668640911579132
0.5511080026626587 0.2106052190065384 0.25682732462882996
0.38550257682800293 0.31770679354667664 0.26231738924980164
0.2842690944671631 0.3068163990974426 0.15015487372875214
0.27835091948509216 0.28330764174461365 0.0503309890627861
0.27926287055015564 0.28703179955482483 0.07562000304460526
0.5938941240310669 0.09817766398191452 0.08340568095445633
0.5926988124847412 0.09437726438045502 0.05649302899837494
0.5260571241378784 0.258749395608902 0.2998039126396179
0.5405408143997192 0.24175509810447693 0.2902332544326782
0.5221061706542969 0.24407193064689636 0.2766788899898529
0.2520299553871155 0.37479785084724426 0.2270621359348297
0.24081692099571228 0.4025966227054596 0.2271137535572052
0.2605094313621521 0.40279901027679443 0.23947104811668396
0.0852755531668663 0.41301292181015015 0.11965440958738327
0.09097209572792053 0.38969993591308594 0.11973196268081665
0.7264060378074646 0.22202853858470917 -0.42641380429267883
0.5330295562744141 0.1501786708831787 -0.10259350389242172
0.29168152809143066 0.33457669615745544 0.22030052542686462
0.3112359046936035 0.3337284028530121 0.23298320174217224
0.507396399974823 0.2609208822250366 0.2864355742931366
0.40482938289642334 0.3163740336894989 0.27537107467651367
0.3248237073421478 0.3111002743244171 0.20020073652267456
0.32753458619117737 0.3221909701824188 0.2234494537115097
0.2823117971420288 0.29879122972488403 0.12571749091148376
0.5919232964515686 0.09206970781087875 0.029525151476264
0.48204466700553894 0.31244802474975586 0.32711127400398254
0.4967677593231201 0.29393649101257324 0.3182497024536133
0.5549525022506714 0.2245919406414032 0.2804985046386719
0.6141416430473328 0.1661263257265091 0.2638019919395447
0.1334439516067505 0.33445262908935547 0.026634354144334793
0.11611565202474594 0.3418335020542145 0.03940136730670929
0.8421905636787415 0.1889166384935379 -0.43893200159072876
0.8502207398414612 0.19775640964508057 -0.44866132736206055
0.8491114377975464 0.21053683757781982 -0.4598241150379181
0.7073785066604614 0.22327853739261627 -0.4128781259059906
0.6885703802108765 0.2248852252960205 -0.3991962671279907
0.5179269313812256 0.16415716707706451 -0.11478999257087708
0.4228294789791107 0.2385627031326294 -0.15966635942459106
0.40476250648498535 0.24356858432292938 -0.14599788188934326
0.3891298770904541 0.3307349681854248 0.284283846616745
0.40854930877685547 0.3300611078739166 0.29717057943344116
0.33065807819366455 0.33290207386016846 0.24578416347503662
0.34687864780426025 0.32066988945007324 0.23645205795764923
0.3662267029285431 0.31920188665390015 0.2494288980960846
0.591659426689148 0.0912604108452797 0.0023658513091504574
0.5955221652984619 0.10342051088809967 0.11004574596881866
0.5975636839866638 0.11017467826604843 0.13648782670497894
0.5690762996673584 0.20703044533729553 0.2705152630805969
0.5651099681854248 0.19314609467983246 0.24652500450611115
0.3360411822795868 0.3400771915912628 0.2626470923423767
0.3252176344394684 0.3443971872329712 0.2600167691707611
0.34481003880500793 0.34409746527671814 0.27261459827423096
0.35558217763900757 0.3398948907852173 0.2754519581794739
0.3643684983253479 0.3440276086330414 0.2853667438030243
0.2715168595314026 0.3739162087440491 0.23956398665905
0.28025633096694946 0.4029938876628876 0.25183728337287903
0.10245848447084427 0.3552949130535126 0.09777286648750305
0.09146697074174881 0.3583260774612427 0.08555183559656143
0.09607668966054916 0.36223095655441284 0.10276101529598236
0.8563910722732544 0.23316174745559692 -0.4799681007862091
0.8368344306945801 0.19581231474876404 -0.4704391062259674
0.7138102650642395 0.24425704777240753 -0.4347507059574127
0.48622938990592957 0.32797569036483765 0.34839701652526855
0.49246034026145935 0.3398253619670868 0.36455464363098145
0.5056269764900208 0.3278464376926422 0.3612906336784363
0.36960792541503906 0.3315697908401489 0.27143406867980957
0.3751217722892761 0.33983927965164185 0.28817394375801086
0.26209545135498047 0.29682135581970215 0.08783227205276489
0.2636161744594574 0.3028384745121002 0.11266864836215973
0.2600090801715851 0.2891356348991394 0.03749783709645271
0.4242180585861206 0.31550705432891846 0.28833144903182983
0.46684613823890686 0.32821810245513916 0.3356468379497528
0.47295355796813965 0.3397734761238098 0.35179683566093445
0.3058195114135742 0.34484362602233887 0.24723897874355316
0.2910209894180298 0.37316569685935974 0.25202855467796326
0.3105115294456482 0.3723286986351013 0.2645668089389801
0.33012256026268005 0.37156054377555847 0.2771850824356079
0.16946935653686523 0.32185935974121094 0.025459889322519302
0.15138572454452515 0.32767972350120544 0.013903775252401829
0.09576094895601273 0.3757466673851013 0.10366442054510117
0.7883995175361633 0.17296206951141357 -0.4352635443210602
0.7691553831100464 0.17339545488357544 -0.42222341895103455
0.6190418004989624 0.2502708435058594 -0.36677271127700806
0.5028980374336243 0.17853157222270966 -0.1268576830625534
0.24167026579380035 0.29508522152900696 -0.00043671924504451454
0.22373056411743164 0.30240553617477417 -0.01279105618596077
0.22376783192157745 0.30242371559143066 0.012401682324707508
0.2955404818058014 0.2740769386291504 -0.03962021321058273
0.2781541645526886 0.283562570810318 -0.05182681605219841
0.3866631090641022 0.24879375100135803 -0.1323878914117813
0.2654030919075012 0.3100338876247406 0.13716445863246918
0.44351208209991455 0.3145988881587982 0.3012446463108063
0.4473596513271332 0.32867351174354553 0.3227657675743103
0.35021689534187317 0.332201212644577 0.25861498713493347
0.5616195201873779 0.18046893179416656 0.2220524251461029
0.4534817039966583 0.33986896276474 0.3390536904335022
0.43386825919151306 0.3398679792881012 0.3263303339481354
0.4426897466182709 0.34520962834358215 0.33635079860687256
0.2863160967826843 0.3454498052597046 0.23446567356586456
0.1333523541688919 0.3338766396045685 0.0024072739761322737
0.1157686710357666 0.3406461775302887 0.015275292098522186
0.08985760807991028 0.36187082529067993 0.07293551415205002
0.6947370767593384 0.24516867101192474 -0.42128273844718933
0.6757328510284424 0.24635764956474304 -0.40765395760536194
0.644275426864624 0.14019471406936646 0.26731663942337036
0.6271196603775024 0.14596953988075256 0.25314974784851074
0.6315369606018066 0.1607457995414734 0.2778698801994324
0.42548108100891113 0.24867631494998932 -0.18437574803829193
0.4409506022930145 0.2339790016412735 -0.17331375181674957
0.24183261394500732 0.295855849981308 -0.025703031569719315
0.2774493396282196 0.3416382670402527 0.22460529208183289
0.29698416590690613 0.34096160531044006 0.23729482293128967
0.36857694387435913 0.2542518973350525 -0.11891411989927292
0.2865401804447174 0.3158075511455536 0.1742793768644333
0.2695823907852173 0.3267408013343811 0.18487995862960815
0.2608488202095032 0.29226526618003845 0.06278839707374573
0.4279150366783142 0.32935744524002075 0.3098914623260498
0.5011398196220398 0.31113743782043457 0.3400755822658539
0.5157056450843811 0.29218828678131104 0.3314129412174225
0.41442352533340454 0.3398398458957672 0.3135984241962433
0.3948513865470886 0.33981508016586304 0.3008975684642792
0.40349113941192627 0.3442912697792053 0.3107813596725464
0.42301979660987854 0.3446992039680481 0.32356953620910645
0.31970563530921936 0.4035783112049103 0.2765795886516571
0.3394530117511749 0.40393394231796265 0.288998544216156
0.3000102937221527 0.403261661529541 0.2641768455505371